7
C2_wb97x.log	Energy: -304474.4891210
O          0.00000        0.00000        0.82205
N          0.00000        1.21974        0.01739
N          0.00000       -1.21974        0.01739
O         -0.61484        1.18020       -1.00104
O          0.58263        2.09253        0.57480
O          0.61484       -1.18020       -1.00104
O         -0.58263       -2.09253        0.57480
