
Running Job 1 of 2 input
qchem input_6255.0 ./qchem6255/ 1
/opt/qchem/bin/mpi/mpirun_qchem -machinefile /tmp/IPFzDQsutf -np 1 /opt/qchem/exe/qcprog.exe input_6255.0 ./qchem6255/

Process 0 of 1 is on comet-08-07.sdsc.edu - thread support 0
initial socket setup ...start
initial socket setup ...done 
now start server 0 ... 
Check license passed

                  Welcome to Q-Chem
     A Quantum Leap Into The Future Of Chemistry


 Q-Chem 4.4, Q-Chem, Inc., Pleasanton, CA (2016)

 Y. Shao,  Z. Gan,  E. Epifanovsky,  A. T. B. Gilbert,  M. Wormit,  
 J. Kussmann,  A. W. Lange,  A. Behn,  J. Deng,  X. Feng,  D. Ghosh,  
 M. Goldey,  P. R. Horn,  L. D. Jacobson,  I. Kaliman,  F. Rob,  
 R. Z. Khaliullin,  T. Kus,  A. Landau,  J. Liu,  E. I. Proynov,  Y. M. Rhee,  
 R. M. Richard,  M. A. Rohrdanz,  R. P. Steele,  E. J. Sundstrom,  
 H. L. Woodcock III,  P. M. Zimmerman,  D. Zuev,  B. Albrecht,  E. Alguire,  
 B. Austin,  S. A. Baeppler,  G. J. O. Beran,  Y. A. Bernard,  E. Berquist,  
 K. Brandhorst,  K. B. Bravaya,  S. T. Brown,  D. Casanova,  C.-M. Chang,  
 Y. Chen,  S. H. Chien,  K. D. Closser,  M. P. Coons,  D. L. Crittenden,  
 S. Dasgupta,  M. Diedenhofen,  R. A. DiStasio Jr.,  H. Do,  A. D. Dutoi,  
 R. G. Edgar,  P.-T. Fang,  S. Fatehi,  Q. Feng,  L. Fusti-Molnar,  
 A. Ghysels,  A. Golubeva-Zadorozhnaya,  J. Gomes,  A. Gunina,  
 M. W. D. Hanson-Heine,  P. H. P. Harbach,  A. W. Hauser,  J. E. Herr,  
 E. G. Hohenstein,  Z. C. Holden,  K. Hui,  T.-C. Jagau,  H. Ji,  B. Kaduk,  
 K. Khistyaev,  Jaehoon Kim,  Jihan Kim,  R. A. King,  P. Klunzinger,  
 K. Koh,  D. Kosenkov,  T. Kowalczyk,  C. M. Krauter,  A. Kunitsa,  
 K. U. Lao,  A. Laurent,  K. V. Lawler,  J. Lee,  D. Lefrancois,  S. Lehtola,  
 S. V. Levchenko,  C. Y. Lin,  Y.-S. Lin,  F. Liu,  E. Livshits,  
 R. C. Lochan,  A. Luenser,  P. Manohar,  S. F. Manzer,  S.-P. Mao,  Y. Mao,  
 N. Mardirossian,  A. V. Marenich,  L. A. Martinez-Martinez,  S. A. Maurer,  
 N. J. Mayhall,  J.-M. Mewes,  A. F. Morrison,  K. Nanda,  T. S. Nguyen-Beck,  
 C. M. Oana,  R. Olivares-Amaya,  D. P. O'Neill,  J. A. Parkhill,  
 T. M. Perrine,  R. Peverati,  P. A. Pieniazek,  F. Plasser,  A. Prociuk,  
 D. R. Rehn,  E. Rosta,  N. J. Russ,  N. Sergueev,  S. M. Sharada,  
 S. Sharma,  D. W. Small,  A. Sodt,  T. Stauch,  T. Stein,  D. Stuck,  
 Y.-C. Su,  A. J. W. Thom,  T. Tsuchimochi,  L. Vogt,  O. Vydrov,  T. Wang,  
 M. A. Watson,  J. Wenzel,  A. White,  C. F. Williams,  V. Vanovschi,  
 K. Yao,  S. Yeganeh,  S. R. Yost,  Z.-Q. You,  I. Y. Zhang,  X. Zhang,  
 Y. Zhao,  B. R. Brooks,  G. K. L. Chan,  D. M. Chipman,  C. J. Cramer,  
 W. A. Goddard III,  M. S. Gordon,  W. J. Hehre,  A. Klamt,  
 H. F. Schaefer III,  M. W. Schmidt,  C. D. Sherrill,  D. G. Truhlar,  
 A. Warshel,  X. Xu,  A. Aspuru-Guzik,  R. Baer,  A. T. Bell,  N. A. Besley,  
 J.-D. Chai,  A. Dreuw,  B. D. Dunietz,  T. R. Furlani,  S. R. Gwaltney,  
 C.-P. Hsu,  Y. Jung,  J. Kong,  D. S. Lambrecht,  W. Liang,  C. Ochsenfeld,  
 V. A. Rassolov,  L. V. Slipchenko,  J. E. Subotnik,  T. Van Voorhis,  
 J. M. Herbert,  A. I. Krylov,  P. M. W. Gill,  M. Head-Gordon

 Contributors to earlier versions of Q-Chem not listed above: 
 R. D. Adamson,  J. Baker,  E. F. C. Byrd,  A. K. Chakraborty,  C.-L. Cheng,  
 H. Dachsel,  R. J. Doerksen,  G. Hawkins,  A. Heyden,  S. Hirata,  
 G. Kedziora,  F. J. Keil,  C. Kelley,  P. P. Korambath,  W. Kurlancheek,  
 A. M. Lee,  M. S. Lee,  D. Liotard,  I. Lotan,  P. E. Maslen,  N. Nair,  
 D. Neuhauser,  R. Olson,  B. Peters,  J. Ritchie,  N. E. Schultz,  
 N. Shenvi,  A. C. Simmonett,  K. S. Thanthiriwatte,  Q. Wu,  W. Zhang

 Please cite Q-Chem as follows:
 Y. Shao et al., Mol. Phys. 113, 184-215 (2015)
 DOI: 10.1080/00268976.2014.952696

 Q-Chem 4.4.2 for Intel X86 Linux

 Parts of Q-Chem use Armadillo 5.200.1 (Boston Tea Smuggler).
 http://arma.sourceforge.net/

 Q-Chem begins on Sat Jul  8 07:59:09 2017  

Host: 
0

     Scratch files written to ./qchem6255//
 Dec716 11556_ 22328  22283 -1
 Parallel job on  1  processors
Processing $rem in /opt/qchem/config/preferences.
 MEM_TOTAL  4000
FILE_GEOM_ORG=        593

Checking the input file for inconsistencies... 	...done.

--------------------------------------------------------------
User input:
--------------------------------------------------------------
$comment0
optfreq

$comment
PF6{1-}     optimization/frequencies with dfmp2/avqz structure

$molecule
-1  1
P         -0.0000000032       -0.0000000035       -0.0000000053
F          1.6194366418        0.0000000021        0.0000000033
F         -1.6194366476        0.0000000025        0.0000000052
F          0.0000000009        1.6194366460        0.0000000083
F          0.0000000014       -1.6194366496        0.0000000014
F          0.0000000023        0.0000000048        1.6194366415
F          0.0000000042       -0.0000000022       -1.6194366545
$end

$rem
jobtype         opt
method          wB97M-V
basis           gen
purecart        1111
xc_grid         000099000590
nl_grid         1
unrestricted    false
incdft          0
incfock         0
max_scf_cycles  100
scf_guess       sad
scf_algorithm   diis
scf_convergence 8
thresh          14
symmetry        false
sym_ignore      true
mem_total       10000
mem_static      4000
$end

$basis
F     0
S   9   1.00
0.215660E+06           0.253780E-04
0.735040E+04           0.103600E-02
0.322990E+05           0.196930E-03
0.208180E+04           0.432940E-02
0.679090E+03           0.154620E-01
0.245100E+03           0.469030E-01
0.954620E+02           0.118810E+00
0.394220E+02           0.217110E+00
0.170180E+02           0.236990E+00
S   8   1.00
0.322990E+05           0.101920E-05
0.208180E+04           0.680960E-04
0.679090E+03           0.346200E-03
0.245100E+03           0.413970E-02
0.954620E+02           0.230730E-01
0.394220E+02           0.133950E+00
0.170180E+02           0.422460E+00
0.745250E+01           0.859990E+00
S   1   1.00
0.313290E+01           1.0000000
S   1   1.00
0.133950E+01           1.0000000
S   1   1.00
0.542180E+00           1.0000000
S   1   1.00
0.209040E+00           1.0000000
S   1   1.00
0.749240E-01           1.0000000
P   5   1.00
0.351220E+03           0.552630E-03
0.829780E+02           0.462850E-02
0.262670E+02           0.238020E-01
0.993070E+01           0.762620E-01
0.406700E+01           0.189640E+00
P   1   1.00
0.172460E+01           1.0000000
P   1   1.00
0.719760E+00           1.0000000
P   1   1.00
0.286240E+00           1.0000000
P   1   1.00
0.107890E+00           1.0000000
P   1   1.00
0.378560E-01           1.0000000
D   1   1.00
0.840000E+01           1.0000000
D   1   1.00
0.260000E+01           1.0000000
D   1   1.00
0.100000E+01           1.0000000
D   1   1.00
0.350000E+00           1.0000000
D   1   1.00
0.113570E+00           1.0000000
F   1   1.00
0.260000E+01           1.0000000
F   1   1.00
0.105000E+01           1.0000000
F   1   1.00
0.151420E+00           1.0000000
G   1   1.00
0.170000E+01           1.0000000
G   1   1.00
0.189280E+00           1.0000000
****
P     0
S   12   1.00
0.106370E+07           0.125090E-04
0.160000E+06           0.966710E-04
0.365130E+05           0.506820E-03
0.103590E+05           0.213100E-02
0.338280E+04           0.769250E-02
0.122230E+04           0.244210E-01
0.477300E+03           0.681220E-01
0.198090E+03           0.160690E+00
0.859940E+02           0.298670E+00
0.386270E+02           0.358780E+00
0.176880E+02           0.206160E+00
0.725510E+01           0.273860E-01
S   10   1.00
0.103590E+05          -0.345020E-05
0.338280E+04          -0.534270E-05
0.122230E+04          -0.138140E-03
0.477300E+03          -0.608820E-03
0.198090E+03          -0.450640E-02
0.859940E+02          -0.170710E-01
0.386270E+02          -0.539540E-01
0.176880E+02          -0.514940E-01
0.725510E+01           0.137580E+00
0.326990E+01           0.275250E+00
S   10   1.00
0.338280E+04          -0.175570E-05
0.122230E+04          -0.158010E-04
0.477300E+03          -0.113530E-03
0.198090E+03          -0.673290E-03
0.859940E+02          -0.303140E-02
0.386270E+02          -0.922920E-02
0.176880E+02          -0.119360E-01
0.725510E+01           0.357250E-01
0.326990E+01           0.158750E+00
0.143130E+01           0.212360E+00
S   1   1.00
0.470470E+00           1.0000000
S   1   1.00
0.212890E+00           1.0000000
S   1   1.00
0.877420E-01           1.0000000
S   1   1.00
0.334080E-01           1.0000000
P   9   1.00
0.276220E+04           0.126180E-03
0.654780E+03           0.110480E-02
0.212580E+03           0.614830E-02
0.798950E+02           0.263070E-01
0.333660E+02           0.798660E-01
0.149860E+02           0.188400E+00
0.696800E+01           0.313620E+00
0.328180E+01           0.353260E+00
0.152470E+01           0.213660E+00
P   9   1.00
0.654780E+03           0.595920E-05
0.212580E+03          -0.680860E-05
0.798950E+02           0.745130E-04
0.333660E+02          -0.606640E-03
0.149860E+02          -0.126040E-02
0.696800E+01          -0.947190E-02
0.328180E+01          -0.440140E-02
0.152470E+01           0.124660E-01
0.669240E+00           0.213430E+00
P   1   1.00
0.299290E+00           1.0000000
P   1   1.00
0.128110E+00           1.0000000
P   1   1.00
0.509920E-01           1.0000000
P   1   1.00
0.188000E-01           1.0000000
D   1   1.00
0.771000E+01           1.0000000
D   1   1.00
0.203000E+01           1.0000000
D   1   1.00
0.600000E+00           1.0000000
D   1   1.00
0.220000E+00           1.0000000
D   1   1.00
0.563990E-01           1.0000000
F   1   1.00
0.134000E+01           1.0000000
F   1   1.00
0.450000E+00           1.0000000
F   1   1.00
0.751990E-01           1.0000000
G   1   1.00
0.720000E+00           1.0000000
G   1   1.00
0.939990E-01           1.0000000
****
$end

--------------------------------------------------------------
 ----------------------------------------------------------------
             Standard Nuclear Orientation (Angstroms)
    I     Atom           X                Y                Z
 ----------------------------------------------------------------
    1      P      -0.0000000032    -0.0000000035    -0.0000000053
    2      F       1.6194366418     0.0000000021     0.0000000033
    3      F      -1.6194366476     0.0000000025     0.0000000052
    4      F       0.0000000009     1.6194366460     0.0000000083
    5      F       0.0000000014    -1.6194366496     0.0000000014
    6      F       0.0000000023     0.0000000048     1.6194366415
    7      F       0.0000000042    -0.0000000022    -1.6194366545
 ----------------------------------------------------------------
 Nuclear Repulsion Energy =   528.9717220514 hartrees
 There are       35 alpha and       35 beta electrons
 Requested basis set is non-standard
 There are 161 shells and 623 basis functions

 Total QAlloc Memory Limit  10000 MB
 Mega-Array Size      3911 MB
 MEM_STATIC part      4000 MB
 A cutoff of  1.0D-14 yielded  12378 shell pairs
 There are    190358 function pairs (    319381 Cartesian)
 
 -------------------------------------------------------
 OpenMP Integral Computing Module                       
 Release: version 1.0, May 2013, Q-Chem Inc. Pittsburgh 
 -------------------------------------------------------
 Integral Job Info:
 Integral job number is                      11
 Integral operator is                         1
 short-range coefficients              15000000
 long-range coefficients              100000000
 Omega coefficients                         300
 if combine SR and LR in K                    1
 Integral screening is                        0
 Integral computing path is                   2
 max size of driver memory is           3200000
 size of driver memory is               1704330
 size of scratch memory is             29050569
 max col of scratch BK array              50625
 max len of scratch array in speh3         2114
 max len of scratch index in speh4           50
 max int batch size is                      520
 min int batch size is                       52
 fixed nKL is                                17
 max L of basis functions is                  4
 order of int derivative is                   0
 number of shells is                        161
 number of basis is                         805
 number of cartesian basis is               805
 number of contracted shell pairs         12378
 number of primitive shell pairs          35268
 maxK2 (contraction) of shell pair          144
 max number of K2 of shell pair               1
 max number of CS2 of shell pair           1208
 max number of PS2 of shell pair           2178
 mem total for path MDJ                 1105868
 -------------------------------------------------------
 Smallest overlap matrix eigenvalue = 5.63E-06

 Scale SEOQF with 1.000000e-01/1.000000e-01/1.000000e-01

 Standard Electronic Orientation quadrupole field applied
 Guess MOs from core Hamiltonian diagonalization
 Long-range K will be added via erf
 Coulomb attenuation parameter = 0.3 bohr**(-1)
 A restricted hybrid HF-DFT SCF calculation will be
 performed using Pulay DIIS extrapolation
 Exchange:     0.1500 Hartree-Fock + 1.0000 wB97M-V + LR-HF
 Correlation:  1.0000 wB97M-V
 Using Euler-Maclaurin-Lebedev (99,590) quadrature formula
 Nonlocal Correlation:  VV10 with C = 0.0100 and b = 6.00
 Grid used for NLC:  SG-1 standard quadrature
 SCF converges when DIIS error is below 1.0E-08
 using 8 threads for integral computing 
 using 8 threads for integral computing 
 K construction time:  CPU 1346.90 s  wall 168.24 s
 -------------------------------------------------------
 OpenMP BLAS3 based DFT computing Module                
 Release: version 1.0, May 2013, Q-Chem Inc. Pittsburgh 
 -------------------------------------------------------
 -------------------------------------------------------
 OpenMP BLAS3 based DFT computing Module                
 Release: version 1.0, May 2013, Q-Chem Inc. Pittsburgh 
 -------------------------------------------------------
 -------------------------------------------------------
 OpenMP BLAS3 based DFT computing Module                
 Release: version 1.0, May 2013, Q-Chem Inc. Pittsburgh 
 -------------------------------------------------------
 Nonlocal correlation =     0.3058184942
 ---------------------------------------
  Cycle       Energy         DIIS Error
 ---------------------------------------
    1    -740.4742625897      1.04E-01
 K construction time:  CPU 1321.54 s  wall 165.08 s
 Nonlocal correlation =     0.2102527099
    2    -613.7519363335      3.63E-02
 K construction time:  CPU 1342.53 s  wall 167.74 s
 Nonlocal correlation =     0.2853577916
    3    -785.2188786350      8.30E-02
 K construction time:  CPU 1342.25 s  wall 167.66 s
 Nonlocal correlation =     0.2907257821
    4    -816.0577332738      6.84E-02
 K construction time:  CPU 1350.56 s  wall 168.68 s
 Nonlocal correlation =     0.2906298748
    5    -838.0268508022      6.00E-02
 K construction time:  CPU 1338.41 s  wall 167.20 s
 Nonlocal correlation =     0.2898090428
    6    -863.0679140435      5.34E-02
 K construction time:  CPU 1336.54 s  wall 166.93 s
 Nonlocal correlation =     0.2898117428
    7    -863.1173776779      5.34E-02
 K construction time:  CPU 1322.23 s  wall 165.16 s
 Nonlocal correlation =     0.2160854867
    8    -643.4030406292      3.47E-02
 K construction time:  CPU 1337.70 s  wall 167.10 s
 Nonlocal correlation =     0.2896622273
    9    -848.6329929374      5.67E-02
 K construction time:  CPU 1335.67 s  wall 166.83 s
 Nonlocal correlation =     0.2897020658
   10    -845.6135134264      5.74E-02
 K construction time:  CPU 1339.74 s  wall 167.32 s
 Nonlocal correlation =     0.2896779558
   11    -848.5478463925      5.67E-02
 K construction time:  CPU 1335.70 s  wall 166.89 s
 Nonlocal correlation =     0.2896038574
   12    -849.1046824047      5.66E-02
 K construction time:  CPU 1333.16 s  wall 166.51 s
 Nonlocal correlation =     0.2895881915
   13    -849.2092422575      5.65E-02
 K construction time:  CPU 1305.63 s  wall 163.15 s
 Nonlocal correlation =     0.2895886651
   14    -849.1754577526      5.66E-02
 K construction time:  CPU 1311.29 s  wall 163.77 s
 Nonlocal correlation =     0.2896034519
   15    -849.1077784553      5.66E-02
 K construction time:  CPU 1310.41 s  wall 163.69 s
 Nonlocal correlation =     0.2896058209
   16    -849.0800943133      5.66E-02
 K construction time:  CPU 1314.94 s  wall 164.24 s
 Nonlocal correlation =     0.2895991435
   17    -849.0202320628      5.66E-02
 K construction time:  CPU 1311.24 s  wall 163.75 s
 Nonlocal correlation =     0.2896512129
   18    -849.0790334020      5.66E-02
 K construction time:  CPU 1308.86 s  wall 163.48 s
 Nonlocal correlation =     0.2898567055
   19    -848.5380816124      5.67E-02
 K construction time:  CPU 1308.47 s  wall 163.47 s
 Nonlocal correlation =     0.2897103655
   20    -848.4370795267      5.67E-02
 K construction time:  CPU 1309.32 s  wall 163.51 s
 Nonlocal correlation =     0.2897213405
   21    -848.3137968242      5.67E-02
 K construction time:  CPU 1310.53 s  wall 163.69 s
 Nonlocal correlation =     0.2897063048
   22    -848.8731015265      5.66E-02
 K construction time:  CPU 1307.90 s  wall 163.37 s
 Nonlocal correlation =     0.2896452403
   23    -845.4490693179      5.79E-02
 K construction time:  CPU 1293.76 s  wall 161.61 s
 Nonlocal correlation =     0.2404344980
   24    -696.6533697048      3.22E-02
 K construction time:  CPU 1308.58 s  wall 163.42 s
 Nonlocal correlation =     0.2878247185
   25    -799.6929731873      6.28E-02
 K construction time:  CPU 1312.15 s  wall 163.87 s
 Nonlocal correlation =     0.2875609468
   26    -802.3668655096      6.20E-02
 K construction time:  CPU 1306.70 s  wall 163.19 s
 Nonlocal correlation =     0.2874655463
   27    -803.6401152428      6.17E-02
 K construction time:  CPU 1306.41 s  wall 163.15 s
 Nonlocal correlation =     0.2874683604
   28    -803.3996903839      6.18E-02
 K construction time:  CPU 1309.68 s  wall 163.57 s
 Nonlocal correlation =     0.2873238274
   29    -805.3243408131      6.13E-02
 K construction time:  CPU 1303.92 s  wall 162.87 s
 Nonlocal correlation =     0.2873474544
   30    -805.5886593414      6.12E-02
 K construction time:  CPU 1309.46 s  wall 163.54 s
 Nonlocal correlation =     0.2870666420
   31    -806.6362816562      6.09E-02
 K construction time:  CPU 1306.60 s  wall 163.21 s
 Nonlocal correlation =     0.2870491147
   32    -806.3811535466      6.10E-02
 K construction time:  CPU 1309.59 s  wall 163.60 s
 Nonlocal correlation =     0.2870173227
   33    -806.6157272204      6.09E-02
 K construction time:  CPU 1308.03 s  wall 163.44 s
 Nonlocal correlation =     0.2870654409
   34    -807.0181873053      6.08E-02
 K construction time:  CPU 1307.63 s  wall 163.32 s
 Nonlocal correlation =     0.2870679638
   35    -806.9483544781      6.08E-02
 K construction time:  CPU 1301.28 s  wall 162.58 s
 Nonlocal correlation =     0.2608592125
   36    -631.7993107220      4.85E-02
 K construction time:  CPU 1311.47 s  wall 163.82 s
 Nonlocal correlation =     0.2734142630
   37    -830.3545960281      4.48E-02
 K construction time:  CPU 1303.03 s  wall 162.77 s
 Nonlocal correlation =     0.2905335749
   38    -920.9404391551      1.96E-02
 K construction time:  CPU 1294.50 s  wall 161.67 s
 Nonlocal correlation =     0.2688341423
   39    -900.5015390735      2.22E-02
 K construction time:  CPU 1284.94 s  wall 160.53 s
 Nonlocal correlation =     0.2809523011
   40    -929.8861547579      1.46E-02
 K construction time:  CPU 1280.67 s  wall 159.94 s
 Nonlocal correlation =     0.2883719557
   41    -939.4340638054      7.23E-03
 K construction time:  CPU 1279.18 s  wall 159.80 s
 Nonlocal correlation =     0.2826285299
   42    -940.5643936729      3.44E-03
 K construction time:  CPU 1277.38 s  wall 159.54 s
 Nonlocal correlation =     0.2835365530
   43    -940.7864348036      1.93E-03
 K construction time:  CPU 1276.13 s  wall 159.37 s
 Nonlocal correlation =     0.2831387643
   44    -940.8810209570      8.33E-04
 K construction time:  CPU 1276.59 s  wall 159.44 s
 Nonlocal correlation =     0.2833145560
   45    -940.9068884456      2.27E-04
 K construction time:  CPU 1278.19 s  wall 159.65 s
 Nonlocal correlation =     0.2834636852
   46    -940.9079901065      9.13E-05
 K construction time:  CPU 1276.78 s  wall 159.48 s
 Nonlocal correlation =     0.2833537815
   47    -940.9081692857      3.55E-05
 K construction time:  CPU 1276.71 s  wall 159.47 s
 Nonlocal correlation =     0.2833737458
   48    -940.9082059319      1.07E-05
 K construction time:  CPU 1282.65 s  wall 160.28 s
 Nonlocal correlation =     0.2833728974
   49    -940.9082105934      1.93E-06
 K construction time:  CPU 1280.59 s  wall 160.01 s
 Nonlocal correlation =     0.2833734919
   50    -940.9082106824      8.96E-07
 K construction time:  CPU 1280.73 s  wall 159.98 s
 Nonlocal correlation =     0.2833736068
   51    -940.9082107031      2.61E-07
 K construction time:  CPU 1281.67 s  wall 160.08 s
 Nonlocal correlation =     0.2833734034
   52    -940.9082107054      6.02E-08
 K construction time:  CPU 1281.03 s  wall 160.02 s
 Nonlocal correlation =     0.2833734316
   53    -940.9082107056      8.10E-09 Convergence criterion met
 ---------------------------------------
 SCF time:  CPU 88950.27 s  wall 11126.78 s
 SCF   energy in the final basis set = -940.9082107056
 Total energy in the final basis set = -940.9082107056
 
 --------------------------------------------------------------
 
                    Orbital Energies (a.u.)
 --------------------------------------------------------------
 
 Alpha MOs
 -- Occupied --
-77.375 -24.702 -24.702 -24.702 -24.702 -24.702 -24.702  -6.710
 -4.824  -4.824  -4.824  -1.219  -1.141  -1.141  -1.141  -1.108
 -1.108  -0.605  -0.489  -0.489  -0.489  -0.420  -0.420  -0.420
 -0.380  -0.380  -0.338  -0.338  -0.338  -0.337  -0.337  -0.337
 -0.297  -0.297  -0.297
 -- Virtual --
  0.118   0.118   0.118   0.140   0.176   0.176   0.187   0.187
  0.187   0.207   0.207   0.207   0.213   0.213   0.213   0.225
  0.225   0.225   0.261   0.262   0.262   0.262   0.316   0.331
  0.331   0.352   0.356   0.356   0.356   0.365   0.365   0.365
  0.386   0.386   0.398   0.398   0.398   0.410   0.449   0.449
  0.449   0.486   0.486   0.486   0.488   0.488   0.488   0.491
  0.527   0.527   0.527   0.542   0.542   0.542   0.555   0.555
  0.555   0.569   0.569   0.581   0.581   0.581   0.605   0.605
  0.617   0.617   0.617   0.617   0.617   0.617   0.633   0.633
  0.637   0.647   0.651   0.683   0.683   0.683   0.707   0.707
  0.707   0.723   0.723   0.723   0.743   0.743   0.743   0.769
  0.769   0.782   0.782   0.782   0.806   0.814   0.814   0.814
  0.844   0.844   0.844   0.857   0.886   0.886   0.886   0.955
  0.955   0.955   0.961   0.961   0.962   0.962   0.962   0.966
  0.966   0.966   0.981   0.981   0.981   1.017   1.038   1.038
  1.041   1.041   1.041   1.106   1.106   1.115   1.115   1.115
  1.130   1.130   1.130   1.146   1.146   1.162   1.162   1.162
  1.169   1.173   1.187   1.187   1.187   1.236   1.236   1.236
  1.260   1.261   1.261   1.261   1.265   1.265   1.288   1.288
  1.288   1.296   1.296   1.296   1.307   1.307   1.337   1.337
  1.337   1.356   1.356   1.356   1.419   1.445   1.445   1.445
  1.455   1.462   1.462   1.462   1.522   1.522   1.530   1.530
  1.530   1.532   1.532   1.532   1.565   1.565   1.620   1.620
  1.620   1.622   1.622   1.622   1.652   1.652   1.652   1.660
  1.674   1.674   1.685   1.685   1.713   1.713   1.713   1.713
  1.713   1.713   1.732   1.732   1.732   1.759   1.759   1.759
  1.769   1.806   1.809   1.809   1.809   1.813   1.813   1.836
  1.836   1.860   1.860   1.860   1.874   1.874   1.874   1.903
  1.903   1.903   1.964   1.964   1.964   1.965   1.965   1.965
  1.994   2.013   2.013   2.021   2.021   2.021   2.046   2.061
  2.075   2.075   2.075   2.151   2.151   2.151   2.268   2.268
  2.268   2.280   2.280   2.357   2.379   2.379   2.379   2.382
  2.382   2.382   2.428   2.511   2.511   2.511   2.535   2.535
  2.535   2.594   2.594   2.693   2.693   2.693   2.726   2.726
  2.726   2.984   2.984   3.148   3.376   3.376   3.376   3.432
  3.432   3.432   3.454   3.454   3.454   3.614   3.615   3.615
  3.662   3.683   3.683   3.683   3.716   3.716   3.716   3.755
  3.789   3.789   3.825   3.825   3.825   3.857   3.857   3.857
  3.885   3.885   3.952   3.952   3.952   3.968   3.968   3.968
  3.971   4.050   4.050   4.103   4.103   4.103   4.124   4.124
  4.124   4.173   4.173   4.206   4.206   4.206   4.263   4.263
  4.263   4.345   4.345   4.345   4.424   4.424   4.424   4.429
  4.450   4.450   4.463   4.463   4.463   4.522   4.522   4.522
  4.542   4.542   4.542   4.638   4.799   4.799   4.799   4.835
  4.835   4.886   4.886   4.886   4.886   4.947   4.947   4.947
  5.002   5.002   5.002   5.149   5.149   5.149   5.275   5.275
  5.275   5.424   5.424   5.424   5.475   5.555   5.555   5.643
  5.765   5.765   5.765   6.033   6.033   6.033   6.093   6.093
  6.093   6.138   6.138   6.167   6.167   6.167   6.353   6.353
  6.353   7.076   7.076   7.157   8.507   8.507   8.534   8.566
  8.566   8.566   8.568   8.568   8.568   8.572   8.572   8.572
  8.581   8.596   8.596   8.596   8.596   8.596   8.599   8.599
  8.599   8.610   8.610   8.610   8.647   8.647   8.657   8.682
  8.682   8.682   8.713   8.713   8.785   8.785   8.785   8.832
  8.832   8.832   8.880   8.880   8.880   8.880   8.926   8.979
  8.979   8.979   9.036   9.036   9.036   9.043   9.043   9.102
  9.102   9.102   9.180   9.180   9.180   9.232   9.246   9.246
  9.311   9.311   9.311   9.329   9.431   9.431   9.431   9.489
  9.489   9.543   9.543   9.543   9.600   9.600   9.600   9.906
  9.906   9.906   9.981   9.981   9.981   9.986  10.337  10.337
 11.792  11.792  11.792  11.826  11.826  11.848  11.877  11.877
 11.877  11.908  11.908  11.908  11.934  11.934  11.934  11.969
 11.969  11.983  11.983  11.983  12.100  12.168  12.168  12.168
 12.171  12.171  12.171  12.423  12.423  12.423  12.442  12.442
 12.442  12.454  12.454  12.454  12.496  12.622  12.622  12.622
 12.669  12.669  12.669  12.835  12.835  12.835  12.849  12.849
 12.849  12.925  12.925  12.925  12.932  12.932  12.958  13.050
 13.050  13.050  13.307  13.307  13.546  13.546  13.546  13.598
 13.847  13.847  18.333  18.333  18.333  19.966  19.966  21.442
 27.508  27.508  27.508  27.522  27.569  27.569  27.636  27.636
 27.636  27.651  27.679  27.679  27.695  27.695  27.695  27.724
 27.724  27.724  27.749  27.749  27.749  27.805  27.805  27.805
 28.079  28.079  28.079  28.177  28.273  28.273  73.281  73.281
 73.281  73.519  73.880  73.880
 --------------------------------------------------------------
 
          Ground-State Mulliken Net Atomic Charges

     Atom                 Charge (a.u.)
  ----------------------------------------
      1 P                     0.711838
      2 F                    -0.285306
      3 F                    -0.285306
      4 F                    -0.285306
      5 F                    -0.285307
      6 F                    -0.285306
      7 F                    -0.285306
  ----------------------------------------
  Sum of atomic charges =    -1.000000

 -----------------------------------------------------------------
                    Cartesian Multipole Moments
 -----------------------------------------------------------------
    Charge (ESU x 10^10)
                -4.8032
    Dipole Moment (Debye)
         X       0.0000      Y       0.0000      Z       0.0000
       Tot       0.0000
    Quadrupole Moments (Debye-Ang)
        XX     -50.7000     XY       0.0000     YY     -50.7000
        XZ       0.0000     YZ       0.0000     ZZ     -50.7000
    Octopole Moments (Debye-Ang^2)
       XXX       0.0000    XXY       0.0000    XYY       0.0000
       YYY       0.0000    XXZ       0.0000    XYZ       0.0000
       YYZ       0.0000    XZZ       0.0000    YZZ       0.0000
       ZZZ       0.0000
    Hexadecapole Moments (Debye-Ang^3)
      XXXX    -225.5848   XXXY       0.0000   XXYY     -67.8338
      XYYY       0.0000   YYYY    -225.5848   XXXZ       0.0000
      XXYZ       0.0000   XYYZ       0.0000   YYYZ       0.0000
      XXZZ     -67.8338   XYZZ       0.0000   YYZZ     -67.8338
      XZZZ       0.0000   YZZZ       0.0000   ZZZZ    -225.5848
 -----------------------------------------------------------------
 Calculating analytic gradient of the SCF energy
 LTot/LBra/LBra=           9           8           8

 Q-Chem warning, PE  0:

 in GenH1, bra side, handled with new code

 NDeriv,LB =           1          44

 Q-Chem warning, PE  0:

 in MixHB, handled with new code

 LTot/LBra/LKet=          17           8           8

 Q-Chem warning, PE  0:

 in GenH1, ket side, handled with new code

 LTot/LBra/LKet=          15           6           8

 Q-Chem warning, PE  0:

 in GenH1, ket side, handled with new code

 LTot/LBra/LKet=          16           7           8

 Q-Chem warning, PE  0:

 in GenH1, ket side, handled with new code

 K construction time:  CPU 9181.24 s  wall 1146.79 s
 Gradient of SCF Energy
            1           2           3           4           5           6
    1   0.0000000  -0.0008983   0.0008984  -0.0000000  -0.0000000  -0.0000000
    2  -0.0000002   0.0000000   0.0000000  -0.0008983   0.0008984   0.0000000
    3   0.0000000  -0.0000000  -0.0000000  -0.0000000  -0.0000000  -0.0008983
            7
    1  -0.0000000
    2   0.0000000
    3   0.0008984
 Max gradient component =       8.984E-04
 RMS gradient           =       4.802E-04
 Gradient time:  CPU 9727.91 s  wall 1349.26 s
 Geometry Optimization Parameters
   NAtoms,    NIC,     NZ,  NCons,   NDum,   NFix, NCnnct, MaxDiis
        7      35       0       0       0       0       0       0


** GEOMETRY OPTIMIZATION IN DELOCALIZED INTERNAL COORDINATES **
   Searching for a Minimum

   Optimization Cycle:   1

                       Coordinates (Angstroms)
     ATOM                X               Y               Z
      1  P         0.0000000000    0.0000000000   -0.0000000053
      2  F         1.6194366418    0.0000000000    0.0000000000
      3  F        -1.6194366476    0.0000000000    0.0000000000
      4  F         0.0000000000    1.6194366460    0.0000000083
      5  F         0.0000000000   -1.6194366496    0.0000000000
      6  F         0.0000000000    0.0000000000    1.6194366415
      7  F         0.0000000000    0.0000000000   -1.6194366545
   Point Group: c1    Number of degrees of freedom:    15


   Energy is   -940.908210706


 Attempting to Generate Delocalized Internal Coordinates

  ***ERROR*** Angle     2    1    3   is near-linear
              But No atom available to define colinear bend
**WARNING** Problems with Internal Coordinates
  Switching to Cartesian Coordinates

 Translations and Rotations Projected Out of Hessian

 15 Hessian modes will be used to form the next step
  Hessian Eigenvalues:
     1.000000    1.000000    1.000000    1.000000    1.000000    1.000000
     1.000000    1.000000    1.000000    1.000000    1.000000    1.000000
     1.000000    1.000000    1.000000

 Minimum Search - Taking Simple RFO Step
 Searching for Lamda that Minimizes Along All modes
 Value Taken    Lamda =  -0.00000484
 Step Taken.  Stepsize is  0.002200

                             Maximum     Tolerance    Cnvgd?
         Gradient           0.000898      0.000300      NO
         Displacement       0.000898      0.001200     YES
         Energy change     *********      0.000001      NO

 ----------------------------------------------------------------
             Standard Nuclear Orientation (Angstroms)
    I     Atom           X                Y                Z
 ----------------------------------------------------------------
    1      P      -0.0000000240     0.0000000884    -0.0000000156
    2      F       1.6199120099    -0.0000000068     0.0000000070
    3      F      -1.6199120374    -0.0000000067     0.0000000066
    4      F       0.0000000128     1.6199120051     0.0000000175
    5      F       0.0000000129    -1.6199120683     0.0000000105
    6      F       0.0000000102    -0.0000000083     1.6199120086
    7      F       0.0000000098    -0.0000000070    -1.6199120446
 ----------------------------------------------------------------
 Nuclear Repulsion Energy =   528.8164891056 hartrees
 There are       35 alpha and       35 beta electrons
 Applying Cartesian multipole field
    Component          Value
    ---------          -----
     (2,0,0)        1.00000E-11
     (0,2,0)        2.00000E-11
     (0,0,2)       -3.00000E-11
 Requested basis set is non-standard
 There are 161 shells and 623 basis functions
 A cutoff of  1.0D-14 yielded  12378 shell pairs
 There are    190358 function pairs (    319381 Cartesian)
 Smallest overlap matrix eigenvalue = 5.63E-06
 Guess MOs from SCF MO coefficient file
 Reading MOs from coefficient file
 Reading MOs from coefficient file
 Long-range K will be added via erf
 Coulomb attenuation parameter = 0.3 bohr**(-1)
 A restricted hybrid HF-DFT SCF calculation will be
 performed using Pulay DIIS extrapolation
 Exchange:     0.1500 Hartree-Fock + 1.0000 wB97M-V + LR-HF
 Correlation:  1.0000 wB97M-V
 Using Euler-Maclaurin-Lebedev (99,590) quadrature formula
 Nonlocal Correlation:  VV10 with C = 0.0100 and b = 6.00
 Grid used for NLC:  SG-1 standard quadrature
 SCF converges when DIIS error is below 1.0E-08
 Geometry optimization detected.  Setting ReadMinima to 0
 Setting SaveMinima to 0
 using 8 threads for integral computing 
 using 8 threads for integral computing 
 K construction time:  CPU 1283.54 s  wall 160.37 s
 -------------------------------------------------------
 OpenMP BLAS3 based DFT computing Module                
 Release: version 1.0, May 2013, Q-Chem Inc. Pittsburgh 
 -------------------------------------------------------
 -------------------------------------------------------
 OpenMP BLAS3 based DFT computing Module                
 Release: version 1.0, May 2013, Q-Chem Inc. Pittsburgh 
 -------------------------------------------------------
 -------------------------------------------------------
 OpenMP BLAS3 based DFT computing Module                
 Release: version 1.0, May 2013, Q-Chem Inc. Pittsburgh 
 -------------------------------------------------------
 Nonlocal correlation =     0.2833848695
 ---------------------------------------
  Cycle       Energy         DIIS Error
 ---------------------------------------
    1    -940.9078626627      9.30E-06
 K construction time:  CPU 1282.54 s  wall 160.18 s
 Nonlocal correlation =     0.2833820677
    2    -940.9082144907      2.02E-06
 K construction time:  CPU 1281.59 s  wall 160.07 s
 Nonlocal correlation =     0.2833841061
    3    -940.9082145583      1.28E-06
 K construction time:  CPU 1281.20 s  wall 160.03 s
 Nonlocal correlation =     0.2833827247
    4    -940.9082146031      2.64E-07
 K construction time:  CPU 1281.66 s  wall 160.08 s
 Nonlocal correlation =     0.2833830069
    5    -940.9082146047      3.89E-08
 K construction time:  CPU 1282.92 s  wall 160.22 s
 Nonlocal correlation =     0.2833829750
    6    -940.9082146048      1.21E-08
 K construction time:  CPU 1278.61 s  wall 159.74 s
 Nonlocal correlation =     0.2833829806
    7    -940.9082146048      1.00E-09 Convergence criterion met
 ---------------------------------------
 SCF time:  CPU 11546.62 s  wall 1444.01 s
 SCF   energy in the final basis set = -940.9082146048
 Total energy in the final basis set = -940.9082146048
 
 --------------------------------------------------------------
 
                    Orbital Energies (a.u.)
 --------------------------------------------------------------
 
 Alpha MOs
 -- Occupied --
-77.375 -24.702 -24.702 -24.702 -24.702 -24.702 -24.702  -6.710
 -4.824  -4.824  -4.824  -1.218  -1.141  -1.141  -1.141  -1.108
 -1.108  -0.605  -0.489  -0.489  -0.489  -0.420  -0.420  -0.420
 -0.380  -0.380  -0.338  -0.338  -0.338  -0.337  -0.337  -0.337
 -0.297  -0.297  -0.297
 -- Virtual --
  0.118   0.118   0.118   0.140   0.176   0.176   0.187   0.187
  0.187   0.207   0.207   0.207   0.213   0.213   0.213   0.225
  0.225   0.225   0.261   0.262   0.262   0.262   0.316   0.331
  0.331   0.352   0.356   0.356   0.356   0.365   0.365   0.365
  0.386   0.386   0.398   0.398   0.398   0.409   0.449   0.449
  0.449   0.486   0.486   0.486   0.488   0.488   0.488   0.491
  0.527   0.527   0.527   0.542   0.542   0.542   0.555   0.555
  0.555   0.569   0.569   0.581   0.581   0.581   0.605   0.605
  0.617   0.617   0.617   0.617   0.617   0.617   0.633   0.633
  0.637   0.647   0.651   0.683   0.683   0.683   0.707   0.707
  0.707   0.723   0.723   0.723   0.743   0.743   0.743   0.769
  0.769   0.781   0.781   0.781   0.806   0.813   0.813   0.813
  0.843   0.843   0.843   0.857   0.886   0.886   0.886   0.955
  0.955   0.955   0.961   0.961   0.962   0.962   0.962   0.966
  0.966   0.966   0.981   0.981   0.981   1.017   1.038   1.038
  1.040   1.040   1.040   1.106   1.106   1.115   1.115   1.115
  1.130   1.130   1.130   1.146   1.146   1.162   1.162   1.162
  1.169   1.173   1.187   1.187   1.187   1.236   1.236   1.236
  1.260   1.261   1.261   1.261   1.264   1.264   1.288   1.288
  1.288   1.295   1.295   1.295   1.307   1.307   1.336   1.336
  1.336   1.356   1.356   1.356   1.419   1.445   1.445   1.445
  1.455   1.462   1.462   1.462   1.521   1.521   1.529   1.529
  1.529   1.532   1.532   1.532   1.565   1.565   1.619   1.619
  1.619   1.622   1.622   1.622   1.652   1.652   1.652   1.660
  1.674   1.674   1.684   1.684   1.713   1.713   1.713   1.713
  1.713   1.713   1.732   1.732   1.732   1.759   1.759   1.759
  1.769   1.806   1.809   1.809   1.809   1.812   1.812   1.835
  1.835   1.860   1.860   1.860   1.874   1.874   1.874   1.903
  1.903   1.903   1.963   1.963   1.963   1.965   1.965   1.965
  1.993   2.013   2.013   2.021   2.021   2.021   2.046   2.060
  2.074   2.074   2.074   2.151   2.151   2.151   2.268   2.268
  2.268   2.280   2.280   2.357   2.379   2.379   2.379   2.381
  2.381   2.381   2.428   2.511   2.511   2.511   2.534   2.534
  2.534   2.595   2.595   2.692   2.692   2.692   2.725   2.725
  2.725   2.983   2.983   3.147   3.376   3.376   3.376   3.431
  3.431   3.431   3.454   3.454   3.454   3.613   3.615   3.615
  3.662   3.683   3.683   3.683   3.717   3.717   3.717   3.756
  3.789   3.789   3.825   3.825   3.825   3.857   3.857   3.857
  3.885   3.885   3.952   3.952   3.952   3.968   3.968   3.968
  3.971   4.050   4.050   4.103   4.103   4.103   4.124   4.124
  4.124   4.172   4.172   4.205   4.205   4.205   4.263   4.263
  4.263   4.345   4.345   4.345   4.423   4.423   4.423   4.428
  4.449   4.449   4.462   4.462   4.462   4.521   4.521   4.521
  4.543   4.543   4.543   4.637   4.797   4.797   4.797   4.835
  4.835   4.885   4.886   4.886   4.886   4.947   4.947   4.947
  5.001   5.001   5.001   5.148   5.148   5.148   5.274   5.274
  5.274   5.423   5.423   5.423   5.474   5.554   5.554   5.642
  5.763   5.763   5.763   6.031   6.031   6.031   6.092   6.092
  6.092   6.138   6.138   6.167   6.167   6.167   6.354   6.354
  6.354   7.073   7.073   7.156   8.507   8.507   8.534   8.566
  8.566   8.566   8.568   8.568   8.568   8.572   8.572   8.572
  8.581   8.596   8.596   8.596   8.596   8.596   8.599   8.599
  8.599   8.610   8.610   8.610   8.647   8.647   8.657   8.682
  8.682   8.682   8.713   8.713   8.785   8.785   8.785   8.831
  8.831   8.831   8.880   8.880   8.880   8.880   8.925   8.978
  8.978   8.978   9.035   9.035   9.035   9.042   9.042   9.102
  9.102   9.102   9.179   9.179   9.179   9.231   9.245   9.245
  9.312   9.312   9.312   9.329   9.430   9.430   9.430   9.488
  9.488   9.541   9.541   9.541   9.598   9.598   9.598   9.905
  9.905   9.905   9.979   9.979   9.979   9.987  10.334  10.334
 11.792  11.792  11.792  11.825  11.825  11.847  11.876  11.876
 11.876  11.908  11.908  11.908  11.934  11.934  11.934  11.968
 11.968  11.983  11.983  11.983  12.099  12.168  12.168  12.168
 12.170  12.170  12.170  12.422  12.422  12.422  12.441  12.441
 12.441  12.454  12.454  12.454  12.495  12.621  12.621  12.621
 12.668  12.668  12.668  12.834  12.834  12.834  12.848  12.848
 12.848  12.924  12.924  12.924  12.931  12.931  12.957  13.049
 13.049  13.049  13.306  13.306  13.544  13.544  13.544  13.599
 13.844  13.844  18.332  18.332  18.332  19.962  19.962  21.433
 27.507  27.507  27.507  27.521  27.569  27.569  27.636  27.636
 27.636  27.651  27.678  27.678  27.695  27.695  27.695  27.723
 27.723  27.723  27.749  27.749  27.749  27.804  27.804  27.804
 28.078  28.078  28.078  28.175  28.271  28.271  73.279  73.279
 73.279  73.517  73.879  73.879
 --------------------------------------------------------------
 
          Ground-State Mulliken Net Atomic Charges

     Atom                 Charge (a.u.)
  ----------------------------------------
      1 P                     0.713441
      2 F                    -0.285574
      3 F                    -0.285574
      4 F                    -0.285573
      5 F                    -0.285574
      6 F                    -0.285574
      7 F                    -0.285574
  ----------------------------------------
  Sum of atomic charges =    -1.000000

 -----------------------------------------------------------------
                    Cartesian Multipole Moments
 -----------------------------------------------------------------
    Charge (ESU x 10^10)
                -4.8032
    Dipole Moment (Debye)
         X       0.0000      Y       0.0000      Z       0.0000
       Tot       0.0000
    Quadrupole Moments (Debye-Ang)
        XX     -50.7067     XY       0.0000     YY     -50.7067
        XZ       0.0000     YZ       0.0000     ZZ     -50.7067
    Octopole Moments (Debye-Ang^2)
       XXX       0.0000    XXY       0.0000    XYY       0.0000
       YYY       0.0000    XXZ       0.0000    XYZ       0.0000
       YYZ       0.0000    XZZ       0.0000    YZZ       0.0000
       ZZZ       0.0000
    Hexadecapole Moments (Debye-Ang^3)
      XXXX    -225.7073   XXXY       0.0000   XXYY     -67.8708
      XYYY       0.0000   YYYY    -225.7073   XXXZ       0.0000
      XXYZ       0.0000   XYYZ       0.0000   YYYZ       0.0000
      XXZZ     -67.8708   XYZZ       0.0000   YYZZ     -67.8708
      XZZZ       0.0000   YZZZ       0.0000   ZZZZ    -225.7073
 -----------------------------------------------------------------
 Calculating analytic gradient of the SCF energy
 K construction time:  CPU 9151.01 s  wall 1142.94 s
 Gradient of SCF Energy
            1           2           3           4           5           6
    1  -0.0000000  -0.0005486   0.0005486   0.0000000   0.0000000   0.0000000
    2   0.0000001  -0.0000000  -0.0000000  -0.0005487   0.0005486  -0.0000000
    3  -0.0000000   0.0000000   0.0000000   0.0000000   0.0000000  -0.0005486
            7
    1   0.0000000
    2  -0.0000000
    3   0.0005486
 Max gradient component =       5.487E-04
 RMS gradient           =       2.932E-04
 Gradient time:  CPU 9695.71 s  wall 1344.94 s
 Geometry Optimization Parameters
   NAtoms,    NIC,     NZ,  NCons,   NDum,   NFix, NCnnct, MaxDiis
        7      35       0       0       0       0       0       0

 Cartesian Hessian Update
 Hessian Updated using BFGS Update


** GEOMETRY OPTIMIZATION IN CARTESIAN COORDINATES **
   Searching for a Minimum

   Optimization Cycle:   2

                       Coordinates (Angstroms)
     ATOM                X               Y               Z
      1  P        -0.0000000240    0.0000000884   -0.0000000156
      2  F         1.6199120099   -0.0000000068    0.0000000070
      3  F        -1.6199120374   -0.0000000067    0.0000000066
      4  F         0.0000000128    1.6199120051    0.0000000175
      5  F         0.0000000129   -1.6199120683    0.0000000105
      6  F         0.0000000102   -0.0000000083    1.6199120086
      7  F         0.0000000098   -0.0000000070   -1.6199120446
   Point Group: c1    Number of degrees of freedom:    15


   Energy is   -940.908214605


 Translations and Rotations Projected Out of Hessian

  1 Hessian modes will be used to form the next step
  Hessian Eigenvalues:
     0.389304

 Minimum Search - Taking Simple RFO Step
 Searching for Lamda that Minimizes Along All modes
 Value Taken    Lamda =  -0.00000464
 Step Taken.  Stepsize is  0.003452

                             Maximum     Tolerance    Cnvgd?
         Gradient           0.000549      0.000300      NO
         Displacement       0.001409      0.001200      NO
         Energy change     -0.000004      0.000001      NO

 ----------------------------------------------------------------
             Standard Nuclear Orientation (Angstroms)
    I     Atom           X                Y                Z
 ----------------------------------------------------------------
    1      P       0.0000000000    -0.0000000730    -0.0000000156
    2      F       1.6206577326     0.0000000000     0.0000000070
    3      F      -1.6206577679     0.0000000000     0.0000000066
    4      F       0.0000000128     1.6206577903     0.0000000175
    5      F       0.0000000129    -1.6206577183     0.0000000105
    6      F       0.0000000102     0.0000000000     1.6206577392
    7      F       0.0000000098     0.0000000000    -1.6206577633
 ----------------------------------------------------------------
 Nuclear Repulsion Energy =   528.5731616067 hartrees
 There are       35 alpha and       35 beta electrons
 Applying Cartesian multipole field
    Component          Value
    ---------          -----
     (2,0,0)        1.00000E-11
     (0,2,0)        2.00000E-11
     (0,0,2)       -3.00000E-11
 Requested basis set is non-standard
 There are 161 shells and 623 basis functions
 A cutoff of  1.0D-14 yielded  12378 shell pairs
 There are    190358 function pairs (    319381 Cartesian)
 Smallest overlap matrix eigenvalue = 5.64E-06
 Guess MOs from SCF MO coefficient file
 Reading MOs from coefficient file
 Reading MOs from coefficient file
 Long-range K will be added via erf
 Coulomb attenuation parameter = 0.3 bohr**(-1)
 A restricted hybrid HF-DFT SCF calculation will be
 performed using Pulay DIIS extrapolation
 Exchange:     0.1500 Hartree-Fock + 1.0000 wB97M-V + LR-HF
 Correlation:  1.0000 wB97M-V
 Using Euler-Maclaurin-Lebedev (99,590) quadrature formula
 Nonlocal Correlation:  VV10 with C = 0.0100 and b = 6.00
 Grid used for NLC:  SG-1 standard quadrature
 SCF converges when DIIS error is below 1.0E-08
 Geometry optimization detected.  Setting ReadMinima to 0
 Setting SaveMinima to 0
 using 8 threads for integral computing 
 using 8 threads for integral computing 
 K construction time:  CPU 1282.21 s  wall 160.21 s
 -------------------------------------------------------
 OpenMP BLAS3 based DFT computing Module                
 Release: version 1.0, May 2013, Q-Chem Inc. Pittsburgh 
 -------------------------------------------------------
 -------------------------------------------------------
 OpenMP BLAS3 based DFT computing Module                
 Release: version 1.0, May 2013, Q-Chem Inc. Pittsburgh 
 -------------------------------------------------------
 -------------------------------------------------------
 OpenMP BLAS3 based DFT computing Module                
 Release: version 1.0, May 2013, Q-Chem Inc. Pittsburgh 
 -------------------------------------------------------
 Nonlocal correlation =     0.2834008980
 ---------------------------------------
  Cycle       Energy         DIIS Error
 ---------------------------------------
    1    -940.9076669436      1.46E-05
 K construction time:  CPU 1281.91 s  wall 160.12 s
 Nonlocal correlation =     0.2833965222
    2    -940.9082166490      3.17E-06
 K construction time:  CPU 1277.48 s  wall 159.57 s
 Nonlocal correlation =     0.2833997171
    3    -940.9082168162      2.02E-06
 K construction time:  CPU 1277.68 s  wall 159.57 s
 Nonlocal correlation =     0.2833975480
    4    -940.9082169269      4.15E-07
 K construction time:  CPU 1279.80 s  wall 159.86 s
 Nonlocal correlation =     0.2833979921
    5    -940.9082169308      6.11E-08
 K construction time:  CPU 1282.51 s  wall 160.24 s
 Nonlocal correlation =     0.2833979422
    6    -940.9082169310      1.89E-08
 K construction time:  CPU 1279.44 s  wall 159.84 s
 Nonlocal correlation =     0.2833979509
    7    -940.9082169310      1.58E-09 Convergence criterion met
 ---------------------------------------
 SCF time:  CPU 11532.65 s  wall 1442.66 s
 SCF   energy in the final basis set = -940.9082169310
 Total energy in the final basis set = -940.9082169310
 
 --------------------------------------------------------------
 
                    Orbital Energies (a.u.)
 --------------------------------------------------------------
 
 Alpha MOs
 -- Occupied --
-77.376 -24.702 -24.702 -24.702 -24.702 -24.702 -24.702  -6.711
 -4.824  -4.824  -4.824  -1.218  -1.141  -1.141  -1.141  -1.108
 -1.108  -0.605  -0.489  -0.489  -0.489  -0.420  -0.420  -0.420
 -0.380  -0.380  -0.338  -0.338  -0.338  -0.337  -0.337  -0.337
 -0.297  -0.297  -0.297
 -- Virtual --
  0.118   0.118   0.118   0.140   0.176   0.176   0.187   0.187
  0.187   0.207   0.207   0.207   0.213   0.213   0.213   0.225
  0.225   0.225   0.261   0.262   0.262   0.262   0.316   0.331
  0.331   0.352   0.356   0.356   0.356   0.365   0.365   0.365
  0.386   0.386   0.398   0.398   0.398   0.408   0.449   0.449
  0.449   0.486   0.486   0.486   0.488   0.488   0.488   0.491
  0.527   0.527   0.527   0.542   0.542   0.542   0.554   0.554
  0.554   0.568   0.568   0.580   0.580   0.580   0.605   0.605
  0.617   0.617   0.617   0.617   0.617   0.617   0.633   0.633
  0.637   0.647   0.651   0.682   0.682   0.682   0.706   0.706
  0.706   0.723   0.723   0.723   0.743   0.743   0.743   0.768
  0.768   0.781   0.781   0.781   0.806   0.813   0.813   0.813
  0.843   0.843   0.843   0.857   0.886   0.886   0.886   0.955
  0.955   0.955   0.961   0.961   0.962   0.962   0.962   0.966
  0.966   0.966   0.981   0.981   0.981   1.017   1.038   1.038
  1.040   1.040   1.040   1.105   1.105   1.116   1.116   1.116
  1.130   1.130   1.130   1.145   1.145   1.162   1.162   1.162
  1.169   1.173   1.187   1.187   1.187   1.236   1.236   1.236
  1.260   1.261   1.261   1.261   1.263   1.263   1.288   1.288
  1.288   1.295   1.295   1.295   1.307   1.307   1.336   1.336
  1.336   1.355   1.355   1.355   1.419   1.444   1.444   1.444
  1.455   1.461   1.461   1.461   1.521   1.521   1.529   1.529
  1.529   1.532   1.532   1.532   1.565   1.565   1.619   1.619
  1.619   1.621   1.621   1.621   1.651   1.651   1.651   1.660
  1.674   1.674   1.684   1.684   1.712   1.712   1.712   1.713
  1.713   1.713   1.732   1.732   1.732   1.759   1.759   1.759
  1.769   1.805   1.809   1.809   1.809   1.812   1.812   1.835
  1.835   1.860   1.860   1.860   1.873   1.873   1.873   1.903
  1.903   1.903   1.963   1.963   1.963   1.965   1.965   1.965
  1.992   2.012   2.012   2.020   2.020   2.020   2.046   2.060
  2.074   2.074   2.074   2.150   2.150   2.150   2.267   2.267
  2.267   2.280   2.280   2.356   2.379   2.379   2.379   2.380
  2.380   2.380   2.428   2.511   2.511   2.511   2.534   2.534
  2.534   2.595   2.595   2.691   2.691   2.691   2.724   2.724
  2.724   2.982   2.982   3.147   3.375   3.375   3.375   3.430
  3.430   3.430   3.453   3.453   3.453   3.611   3.615   3.615
  3.661   3.682   3.682   3.682   3.718   3.718   3.718   3.756
  3.790   3.790   3.825   3.825   3.825   3.856   3.856   3.856
  3.885   3.885   3.951   3.951   3.951   3.968   3.968   3.968
  3.970   4.049   4.049   4.102   4.102   4.102   4.123   4.123
  4.123   4.172   4.172   4.204   4.204   4.204   4.263   4.263
  4.263   4.345   4.345   4.345   4.422   4.422   4.422   4.425
  4.448   4.448   4.461   4.461   4.461   4.519   4.519   4.519
  4.543   4.543   4.543   4.635   4.795   4.795   4.795   4.834
  4.834   4.883   4.885   4.885   4.885   4.946   4.946   4.946
  4.999   4.999   4.999   5.146   5.146   5.146   5.272   5.272
  5.272   5.421   5.421   5.421   5.472   5.552   5.552   5.641
  5.760   5.760   5.760   6.028   6.028   6.028   6.090   6.090
  6.090   6.139   6.139   6.166   6.166   6.166   6.356   6.356
  6.356   7.069   7.069   7.153   8.507   8.507   8.534   8.566
  8.566   8.566   8.568   8.568   8.568   8.571   8.571   8.571
  8.581   8.596   8.596   8.596   8.596   8.596   8.599   8.599
  8.599   8.609   8.609   8.609   8.647   8.647   8.657   8.682
  8.682   8.682   8.713   8.713   8.784   8.784   8.784   8.830
  8.830   8.830   8.879   8.879   8.879   8.879   8.924   8.975
  8.975   8.975   9.034   9.034   9.034   9.041   9.041   9.102
  9.102   9.102   9.179   9.179   9.179   9.230   9.245   9.245
  9.312   9.312   9.312   9.330   9.430   9.430   9.430   9.487
  9.487   9.538   9.538   9.538   9.596   9.596   9.596   9.904
  9.904   9.904   9.976   9.976   9.976   9.987  10.330  10.330
 11.791  11.791  11.791  11.825  11.825  11.847  11.876  11.876
 11.876  11.907  11.907  11.907  11.934  11.934  11.934  11.967
 11.967  11.982  11.982  11.982  12.097  12.167  12.167  12.167
 12.170  12.170  12.170  12.421  12.421  12.421  12.440  12.440
 12.440  12.453  12.453  12.453  12.493  12.619  12.619  12.619
 12.667  12.667  12.667  12.832  12.832  12.832  12.846  12.846
 12.846  12.922  12.922  12.922  12.930  12.930  12.956  13.048
 13.048  13.048  13.305  13.305  13.541  13.541  13.541  13.600
 13.841  13.841  18.330  18.330  18.330  19.956  19.956  21.418
 27.507  27.507  27.507  27.521  27.569  27.569  27.636  27.636
 27.636  27.651  27.677  27.677  27.694  27.694  27.694  27.722
 27.722  27.722  27.747  27.747  27.747  27.804  27.804  27.804
 28.076  28.076  28.076  28.172  28.268  28.268  73.277  73.277
 73.277  73.514  73.876  73.876
 --------------------------------------------------------------
 
          Ground-State Mulliken Net Atomic Charges

     Atom                 Charge (a.u.)
  ----------------------------------------
      1 P                     0.715961
      2 F                    -0.285994
      3 F                    -0.285994
      4 F                    -0.285994
      5 F                    -0.285993
      6 F                    -0.285994
      7 F                    -0.285994
  ----------------------------------------
  Sum of atomic charges =    -1.000000

 -----------------------------------------------------------------
                    Cartesian Multipole Moments
 -----------------------------------------------------------------
    Charge (ESU x 10^10)
                -4.8032
    Dipole Moment (Debye)
         X       0.0000      Y       0.0000      Z       0.0000
       Tot       0.0000
    Quadrupole Moments (Debye-Ang)
        XX     -50.7173     XY       0.0000     YY     -50.7173
        XZ       0.0000     YZ       0.0000     ZZ     -50.7173
    Octopole Moments (Debye-Ang^2)
       XXX       0.0000    XXY       0.0000    XYY       0.0000
       YYY       0.0000    XXZ       0.0000    XYZ       0.0000
       YYZ       0.0000    XZZ       0.0000    YZZ       0.0000
       ZZZ       0.0000
    Hexadecapole Moments (Debye-Ang^3)
      XXXX    -225.8996   XXXY       0.0000   XXYY     -67.9288
      XYYY       0.0000   YYYY    -225.8996   XXXZ       0.0000
      XXYZ       0.0000   XYYZ       0.0000   YYYZ       0.0000
      XXZZ     -67.9288   XYZZ       0.0000   YYZZ     -67.9288
      XZZZ       0.0000   YZZZ       0.0000   ZZZZ    -225.8996
 -----------------------------------------------------------------
 Calculating analytic gradient of the SCF energy
 K construction time:  CPU 9134.24 s  wall 1140.73 s
 Gradient of SCF Energy
            1           2           3           4           5           6
    1   0.0000000  -0.0000020   0.0000020   0.0000000   0.0000000   0.0000000
    2  -0.0000001   0.0000000   0.0000000  -0.0000019   0.0000020   0.0000000
    3  -0.0000000   0.0000000   0.0000000   0.0000000   0.0000000  -0.0000020
            7
    1   0.0000000
    2   0.0000000
    3   0.0000020
 Max gradient component =       2.028E-06
 RMS gradient           =       1.062E-06
 Gradient time:  CPU 9677.82 s  wall 1342.21 s
 Geometry Optimization Parameters
   NAtoms,    NIC,     NZ,  NCons,   NDum,   NFix, NCnnct, MaxDiis
        7      35       0       0       0       0       0       0

 Cartesian Hessian Update
 Hessian Updated using BFGS Update


** GEOMETRY OPTIMIZATION IN CARTESIAN COORDINATES **
   Searching for a Minimum

   Optimization Cycle:   3

                       Coordinates (Angstroms)
     ATOM                X               Y               Z
      1  P         0.0000000000   -0.0000000730   -0.0000000156
      2  F         1.6206577326    0.0000000000    0.0000000070
      3  F        -1.6206577679    0.0000000000    0.0000000066
      4  F         0.0000000128    1.6206577903    0.0000000175
      5  F         0.0000000129   -1.6206577183    0.0000000105
      6  F         0.0000000102    0.0000000000    1.6206577392
      7  F         0.0000000098    0.0000000000   -1.6206577633
   Point Group: c1    Number of degrees of freedom:    15


   Energy is   -940.908216931


 Translations and Rotations Projected Out of Hessian

  3 Hessian modes will be used to form the next step
  Hessian Eigenvalues:
     0.387899    1.000000    1.000000

 Minimum Search - Taking Simple RFO Step
 Searching for Lamda that Minimizes Along All modes
 Value Taken    Lamda =   0.00000000
 Step Taken.  Stepsize is  0.000013

                             Maximum     Tolerance    Cnvgd?
         Gradient           0.000002      0.000300     YES
         Displacement       0.000005      0.001200     YES
         Energy change     -0.000002      0.000001      NO


                       Distance Matrix (Angstroms)
             P (  1)   F (  2)   F (  3)   F (  4)   F (  5)   F (  6)
   F (  2)  1.620658
   F (  3)  1.620658  3.241316
   F (  4)  1.620658  2.291956  2.291956
   F (  5)  1.620658  2.291956  2.291956  3.241316
   F (  6)  1.620658  2.291956  2.291956  2.291956  2.291956
   F (  7)  1.620658  2.291956  2.291956  2.291956  2.291956  3.241316

 
 Final energy is   -940.908216930965     


 ******************************
 **  OPTIMIZATION CONVERGED  **
 ******************************

                       Coordinates (Angstroms)
     ATOM                X               Y               Z
      1  P         0.0000000000   -0.0000000730   -0.0000000156
      2  F         1.6206577326    0.0000000000    0.0000000070
      3  F        -1.6206577679    0.0000000000    0.0000000066
      4  F         0.0000000128    1.6206577903    0.0000000175
      5  F         0.0000000129   -1.6206577183    0.0000000105
      6  F         0.0000000102    0.0000000000    1.6206577392
      7  F         0.0000000098    0.0000000000   -1.6206577633

Z-matrix Print:
$molecule
-1 1
P 
F  1 1.620658
F  1 1.620658 2 90.000002
F  1 1.620658 2 90.000004 3 -90.000000 0
F  1 1.620658 2 90.000002 3 89.999999 0
F  1 1.620658 2 90.000003 3 180.000000 0
F  1 1.620658 2 179.999998 3 61.568132 0
$end

 
 --------------------------------------------------------------
 
                    Orbital Energies (a.u.)
 --------------------------------------------------------------
 
 Alpha MOs
 -- Occupied --
-77.376 -24.702 -24.702 -24.702 -24.702 -24.702 -24.702  -6.711
 -4.824  -4.824  -4.824  -1.218  -1.141  -1.141  -1.141  -1.108
 -1.108  -0.605  -0.489  -0.489  -0.489  -0.420  -0.420  -0.420
 -0.380  -0.380  -0.338  -0.338  -0.338  -0.337  -0.337  -0.337
 -0.297  -0.297  -0.297
 -- Virtual --
  0.118   0.118   0.118   0.140   0.176   0.176   0.187   0.187
  0.187   0.207   0.207   0.207   0.213   0.213   0.213   0.225
  0.225   0.225   0.261   0.262   0.262   0.262   0.316   0.331
  0.331   0.352   0.356   0.356   0.356   0.365   0.365   0.365
  0.386   0.386   0.398   0.398   0.398   0.408   0.449   0.449
  0.449   0.486   0.486   0.486   0.488   0.488   0.488   0.491
  0.527   0.527   0.527   0.542   0.542   0.542   0.554   0.554
  0.554   0.568   0.568   0.580   0.580   0.580   0.605   0.605
  0.617   0.617   0.617   0.617   0.617   0.617   0.633   0.633
  0.637   0.647   0.651   0.682   0.682   0.682   0.706   0.706
  0.706   0.723   0.723   0.723   0.743   0.743   0.743   0.768
  0.768   0.781   0.781   0.781   0.806   0.813   0.813   0.813
  0.843   0.843   0.843   0.857   0.886   0.886   0.886   0.955
  0.955   0.955   0.961   0.961   0.962   0.962   0.962   0.966
  0.966   0.966   0.981   0.981   0.981   1.017   1.038   1.038
  1.040   1.040   1.040   1.105   1.105   1.116   1.116   1.116
  1.130   1.130   1.130   1.145   1.145   1.162   1.162   1.162
  1.169   1.173   1.187   1.187   1.187   1.236   1.236   1.236
  1.260   1.261   1.261   1.261   1.263   1.263   1.288   1.288
  1.288   1.295   1.295   1.295   1.307   1.307   1.336   1.336
  1.336   1.355   1.355   1.355   1.419   1.444   1.444   1.444
  1.455   1.461   1.461   1.461   1.521   1.521   1.529   1.529
  1.529   1.532   1.532   1.532   1.565   1.565   1.619   1.619
  1.619   1.621   1.621   1.621   1.651   1.651   1.651   1.660
  1.674   1.674   1.684   1.684   1.712   1.712   1.712   1.713
  1.713   1.713   1.732   1.732   1.732   1.759   1.759   1.759
  1.769   1.805   1.809   1.809   1.809   1.812   1.812   1.835
  1.835   1.860   1.860   1.860   1.873   1.873   1.873   1.903
  1.903   1.903   1.963   1.963   1.963   1.965   1.965   1.965
  1.992   2.012   2.012   2.020   2.020   2.020   2.046   2.060
  2.074   2.074   2.074   2.150   2.150   2.150   2.267   2.267
  2.267   2.280   2.280   2.356   2.379   2.379   2.379   2.380
  2.380   2.380   2.428   2.511   2.511   2.511   2.534   2.534
  2.534   2.595   2.595   2.691   2.691   2.691   2.724   2.724
  2.724   2.982   2.982   3.147   3.375   3.375   3.375   3.430
  3.430   3.430   3.453   3.453   3.453   3.611   3.615   3.615
  3.661   3.682   3.682   3.682   3.718   3.718   3.718   3.756
  3.790   3.790   3.825   3.825   3.825   3.856   3.856   3.856
  3.885   3.885   3.951   3.951   3.951   3.968   3.968   3.968
  3.970   4.049   4.049   4.102   4.102   4.102   4.123   4.123
  4.123   4.172   4.172   4.204   4.204   4.204   4.263   4.263
  4.263   4.345   4.345   4.345   4.422   4.422   4.422   4.425
  4.448   4.448   4.461   4.461   4.461   4.519   4.519   4.519
  4.543   4.543   4.543   4.635   4.795   4.795   4.795   4.834
  4.834   4.883   4.885   4.885   4.885   4.946   4.946   4.946
  4.999   4.999   4.999   5.146   5.146   5.146   5.272   5.272
  5.272   5.421   5.421   5.421   5.472   5.552   5.552   5.641
  5.760   5.760   5.760   6.028   6.028   6.028   6.090   6.090
  6.090   6.139   6.139   6.166   6.166   6.166   6.356   6.356
  6.356   7.069   7.069   7.153   8.507   8.507   8.534   8.566
  8.566   8.566   8.568   8.568   8.568   8.571   8.571   8.571
  8.581   8.596   8.596   8.596   8.596   8.596   8.599   8.599
  8.599   8.609   8.609   8.609   8.647   8.647   8.657   8.682
  8.682   8.682   8.713   8.713   8.784   8.784   8.784   8.830
  8.830   8.830   8.879   8.879   8.879   8.879   8.924   8.975
  8.975   8.975   9.034   9.034   9.034   9.041   9.041   9.102
  9.102   9.102   9.179   9.179   9.179   9.230   9.245   9.245
  9.312   9.312   9.312   9.330   9.430   9.430   9.430   9.487
  9.487   9.538   9.538   9.538   9.596   9.596   9.596   9.904
  9.904   9.904   9.976   9.976   9.976   9.987  10.330  10.330
 11.791  11.791  11.791  11.825  11.825  11.847  11.876  11.876
 11.876  11.907  11.907  11.907  11.934  11.934  11.934  11.967
 11.967  11.982  11.982  11.982  12.097  12.167  12.167  12.167
 12.170  12.170  12.170  12.421  12.421  12.421  12.440  12.440
 12.440  12.453  12.453  12.453  12.493  12.619  12.619  12.619
 12.667  12.667  12.667  12.832  12.832  12.832  12.846  12.846
 12.846  12.922  12.922  12.922  12.930  12.930  12.956  13.048
 13.048  13.048  13.305  13.305  13.541  13.541  13.541  13.600
 13.841  13.841  18.330  18.330  18.330  19.956  19.956  21.418
 27.507  27.507  27.507  27.521  27.569  27.569  27.636  27.636
 27.636  27.651  27.677  27.677  27.694  27.694  27.694  27.722
 27.722  27.722  27.747  27.747  27.747  27.804  27.804  27.804
 28.076  28.076  28.076  28.172  28.268  28.268  73.277  73.277
 73.277  73.514  73.876  73.876
 --------------------------------------------------------------
 
          Ground-State Mulliken Net Atomic Charges

     Atom                 Charge (a.u.)
  ----------------------------------------
      1 P                     0.715961
      2 F                    -0.285994
      3 F                    -0.285994
      4 F                    -0.285994
      5 F                    -0.285993
      6 F                    -0.285994
      7 F                    -0.285994
  ----------------------------------------
  Sum of atomic charges =    -1.000000

 -----------------------------------------------------------------
                    Cartesian Multipole Moments
 -----------------------------------------------------------------
    Charge (ESU x 10^10)
                -4.8032
    Dipole Moment (Debye)
         X       0.0000      Y       0.0000      Z       0.0000
       Tot       0.0000
    Quadrupole Moments (Debye-Ang)
        XX     -50.7173     XY       0.0000     YY     -50.7173
        XZ       0.0000     YZ       0.0000     ZZ     -50.7173
    Octopole Moments (Debye-Ang^2)
       XXX       0.0000    XXY       0.0000    XYY       0.0000
       YYY       0.0000    XXZ       0.0000    XYZ       0.0000
       YYZ       0.0000    XZZ       0.0000    YZZ       0.0000
       ZZZ       0.0000
    Hexadecapole Moments (Debye-Ang^3)
      XXXX    -225.8996   XXXY       0.0000   XXYY     -67.9288
      XYYY       0.0000   YYYY    -225.8996   XXXZ       0.0000
      XXYZ       0.0000   XYYZ       0.0000   YYYZ       0.0000
      XXZZ     -67.9288   XYZZ       0.0000   YYZZ     -67.9288
      XZZZ       0.0000   YZZZ       0.0000   ZZZZ    -225.8996
 -----------------------------------------------------------------
Archival summary:
1\1\comet-08-07.sdsc.edu\OPT\ProcedureUnspecified\BasisUnspecified\16(1-,1)\ohamto\SatJul813:00:062017SatJul813:00:062017\0\\#,OPT,ProcedureUnspecified,BasisUnspecified,\\-1,1\P\F,1,1.62066\F,1,1.62066,2,90\F,1,1.62066,2,90,3,-90,0\F,1,1.62066,2,90,3,90,0\F,1,1.62066,2,90,3,180,0\F,1,1.62066,2,180,3,61.5681,0\\\@

 Total job time:  18056.95s(wall), 141146.76s(cpu) 
 Sat Jul  8 13:00:06 2017

        *************************************************************
        *                                                           *
        *  Thank you very much for using Q-Chem.  Have a nice day.  *
        *                                                           *
        *************************************************************


0 sent ACK to 0 
now end server 0 ... 
cleanup process ... done

Running Job 2 of 2 input
qchem input_6255.1 ./qchem6255/ 1
/opt/qchem/bin/mpi/mpirun_qchem -machinefile /tmp/IPFzDQsutf -np 1 /opt/qchem/exe/qcprog.exe input_6255.1 ./qchem6255/

Process 0 of 1 is on comet-08-07.sdsc.edu - thread support 0
initial socket setup ...start
initial socket setup ...done 
now start server 0 ... 
Check license passed

                  Welcome to Q-Chem
     A Quantum Leap Into The Future Of Chemistry


 Q-Chem 4.4, Q-Chem, Inc., Pleasanton, CA (2016)

 Y. Shao,  Z. Gan,  E. Epifanovsky,  A. T. B. Gilbert,  M. Wormit,  
 J. Kussmann,  A. W. Lange,  A. Behn,  J. Deng,  X. Feng,  D. Ghosh,  
 M. Goldey,  P. R. Horn,  L. D. Jacobson,  I. Kaliman,  F. Rob,  
 R. Z. Khaliullin,  T. Kus,  A. Landau,  J. Liu,  E. I. Proynov,  Y. M. Rhee,  
 R. M. Richard,  M. A. Rohrdanz,  R. P. Steele,  E. J. Sundstrom,  
 H. L. Woodcock III,  P. M. Zimmerman,  D. Zuev,  B. Albrecht,  E. Alguire,  
 B. Austin,  S. A. Baeppler,  G. J. O. Beran,  Y. A. Bernard,  E. Berquist,  
 K. Brandhorst,  K. B. Bravaya,  S. T. Brown,  D. Casanova,  C.-M. Chang,  
 Y. Chen,  S. H. Chien,  K. D. Closser,  M. P. Coons,  D. L. Crittenden,  
 S. Dasgupta,  M. Diedenhofen,  R. A. DiStasio Jr.,  H. Do,  A. D. Dutoi,  
 R. G. Edgar,  P.-T. Fang,  S. Fatehi,  Q. Feng,  L. Fusti-Molnar,  
 A. Ghysels,  A. Golubeva-Zadorozhnaya,  J. Gomes,  A. Gunina,  
 M. W. D. Hanson-Heine,  P. H. P. Harbach,  A. W. Hauser,  J. E. Herr,  
 E. G. Hohenstein,  Z. C. Holden,  K. Hui,  T.-C. Jagau,  H. Ji,  B. Kaduk,  
 K. Khistyaev,  Jaehoon Kim,  Jihan Kim,  R. A. King,  P. Klunzinger,  
 K. Koh,  D. Kosenkov,  T. Kowalczyk,  C. M. Krauter,  A. Kunitsa,  
 K. U. Lao,  A. Laurent,  K. V. Lawler,  J. Lee,  D. Lefrancois,  S. Lehtola,  
 S. V. Levchenko,  C. Y. Lin,  Y.-S. Lin,  F. Liu,  E. Livshits,  
 R. C. Lochan,  A. Luenser,  P. Manohar,  S. F. Manzer,  S.-P. Mao,  Y. Mao,  
 N. Mardirossian,  A. V. Marenich,  L. A. Martinez-Martinez,  S. A. Maurer,  
 N. J. Mayhall,  J.-M. Mewes,  A. F. Morrison,  K. Nanda,  T. S. Nguyen-Beck,  
 C. M. Oana,  R. Olivares-Amaya,  D. P. O'Neill,  J. A. Parkhill,  
 T. M. Perrine,  R. Peverati,  P. A. Pieniazek,  F. Plasser,  A. Prociuk,  
 D. R. Rehn,  E. Rosta,  N. J. Russ,  N. Sergueev,  S. M. Sharada,  
 S. Sharma,  D. W. Small,  A. Sodt,  T. Stauch,  T. Stein,  D. Stuck,  
 Y.-C. Su,  A. J. W. Thom,  T. Tsuchimochi,  L. Vogt,  O. Vydrov,  T. Wang,  
 M. A. Watson,  J. Wenzel,  A. White,  C. F. Williams,  V. Vanovschi,  
 K. Yao,  S. Yeganeh,  S. R. Yost,  Z.-Q. You,  I. Y. Zhang,  X. Zhang,  
 Y. Zhao,  B. R. Brooks,  G. K. L. Chan,  D. M. Chipman,  C. J. Cramer,  
 W. A. Goddard III,  M. S. Gordon,  W. J. Hehre,  A. Klamt,  
 H. F. Schaefer III,  M. W. Schmidt,  C. D. Sherrill,  D. G. Truhlar,  
 A. Warshel,  X. Xu,  A. Aspuru-Guzik,  R. Baer,  A. T. Bell,  N. A. Besley,  
 J.-D. Chai,  A. Dreuw,  B. D. Dunietz,  T. R. Furlani,  S. R. Gwaltney,  
 C.-P. Hsu,  Y. Jung,  J. Kong,  D. S. Lambrecht,  W. Liang,  C. Ochsenfeld,  
 V. A. Rassolov,  L. V. Slipchenko,  J. E. Subotnik,  T. Van Voorhis,  
 J. M. Herbert,  A. I. Krylov,  P. M. W. Gill,  M. Head-Gordon

 Contributors to earlier versions of Q-Chem not listed above: 
 R. D. Adamson,  J. Baker,  E. F. C. Byrd,  A. K. Chakraborty,  C.-L. Cheng,  
 H. Dachsel,  R. J. Doerksen,  G. Hawkins,  A. Heyden,  S. Hirata,  
 G. Kedziora,  F. J. Keil,  C. Kelley,  P. P. Korambath,  W. Kurlancheek,  
 A. M. Lee,  M. S. Lee,  D. Liotard,  I. Lotan,  P. E. Maslen,  N. Nair,  
 D. Neuhauser,  R. Olson,  B. Peters,  J. Ritchie,  N. E. Schultz,  
 N. Shenvi,  A. C. Simmonett,  K. S. Thanthiriwatte,  Q. Wu,  W. Zhang

 Please cite Q-Chem as follows:
 Y. Shao et al., Mol. Phys. 113, 184-215 (2015)
 DOI: 10.1080/00268976.2014.952696

 Q-Chem 4.4.2 for Intel X86 Linux

 Parts of Q-Chem use Armadillo 5.200.1 (Boston Tea Smuggler).
 http://arma.sourceforge.net/

 Q-Chem begins on Sat Jul  8 13:00:09 2017  

Host: 
0

     Scratch files written to ./qchem6255//
 Dec716 11556_ 22328  22283 -1
 Parallel job on  1  processors
Processing $rem in /opt/qchem/config/preferences.
 MEM_TOTAL  4000
The previous job contains 0 fragments, simply inherited here
FILE_GEOM_ORG=        593


!!********************************************.
!!******************Warning*******************.
!!Desired Analytical derivatives not available.
!!Finite difference job might take a long time.
!!********************************************.
!!********************************************.


 2-order derivative to be evaluated numerically with 1-order analytical derivatives

Checking the input file for inconsistencies... 	...done.

--------------------------------------------------------------
User input:
--------------------------------------------------------------

$molecule
read
$end

$rem
jobtype         freq
method          wB97M-V
basis           gen
purecart        1111
xc_grid         000099000590
nl_grid         1
unrestricted    false
incdft          0
incfock         0
max_scf_cycles  100
scf_guess       read
vibman_print    6
thresh          14
symmetry        false
sym_ignore      true
mem_total       10000
mem_static      4000
$end

$basis
F     0
S   9   1.00
0.215660E+06           0.253780E-04
0.735040E+04           0.103600E-02
0.322990E+05           0.196930E-03
0.208180E+04           0.432940E-02
0.679090E+03           0.154620E-01
0.245100E+03           0.469030E-01
0.954620E+02           0.118810E+00
0.394220E+02           0.217110E+00
0.170180E+02           0.236990E+00
S   8   1.00
0.322990E+05           0.101920E-05
0.208180E+04           0.680960E-04
0.679090E+03           0.346200E-03
0.245100E+03           0.413970E-02
0.954620E+02           0.230730E-01
0.394220E+02           0.133950E+00
0.170180E+02           0.422460E+00
0.745250E+01           0.859990E+00
S   1   1.00
0.313290E+01           1.0000000
S   1   1.00
0.133950E+01           1.0000000
S   1   1.00
0.542180E+00           1.0000000
S   1   1.00
0.209040E+00           1.0000000
S   1   1.00
0.749240E-01           1.0000000
P   5   1.00
0.351220E+03           0.552630E-03
0.829780E+02           0.462850E-02
0.262670E+02           0.238020E-01
0.993070E+01           0.762620E-01
0.406700E+01           0.189640E+00
P   1   1.00
0.172460E+01           1.0000000
P   1   1.00
0.719760E+00           1.0000000
P   1   1.00
0.286240E+00           1.0000000
P   1   1.00
0.107890E+00           1.0000000
P   1   1.00
0.378560E-01           1.0000000
D   1   1.00
0.840000E+01           1.0000000
D   1   1.00
0.260000E+01           1.0000000
D   1   1.00
0.100000E+01           1.0000000
D   1   1.00
0.350000E+00           1.0000000
D   1   1.00
0.113570E+00           1.0000000
F   1   1.00
0.260000E+01           1.0000000
F   1   1.00
0.105000E+01           1.0000000
F   1   1.00
0.151420E+00           1.0000000
G   1   1.00
0.170000E+01           1.0000000
G   1   1.00
0.189280E+00           1.0000000
****
P     0
S   12   1.00
0.106370E+07           0.125090E-04
0.160000E+06           0.966710E-04
0.365130E+05           0.506820E-03
0.103590E+05           0.213100E-02
0.338280E+04           0.769250E-02
0.122230E+04           0.244210E-01
0.477300E+03           0.681220E-01
0.198090E+03           0.160690E+00
0.859940E+02           0.298670E+00
0.386270E+02           0.358780E+00
0.176880E+02           0.206160E+00
0.725510E+01           0.273860E-01
S   10   1.00
0.103590E+05          -0.345020E-05
0.338280E+04          -0.534270E-05
0.122230E+04          -0.138140E-03
0.477300E+03          -0.608820E-03
0.198090E+03          -0.450640E-02
0.859940E+02          -0.170710E-01
0.386270E+02          -0.539540E-01
0.176880E+02          -0.514940E-01
0.725510E+01           0.137580E+00
0.326990E+01           0.275250E+00
S   10   1.00
0.338280E+04          -0.175570E-05
0.122230E+04          -0.158010E-04
0.477300E+03          -0.113530E-03
0.198090E+03          -0.673290E-03
0.859940E+02          -0.303140E-02
0.386270E+02          -0.922920E-02
0.176880E+02          -0.119360E-01
0.725510E+01           0.357250E-01
0.326990E+01           0.158750E+00
0.143130E+01           0.212360E+00
S   1   1.00
0.470470E+00           1.0000000
S   1   1.00
0.212890E+00           1.0000000
S   1   1.00
0.877420E-01           1.0000000
S   1   1.00
0.334080E-01           1.0000000
P   9   1.00
0.276220E+04           0.126180E-03
0.654780E+03           0.110480E-02
0.212580E+03           0.614830E-02
0.798950E+02           0.263070E-01
0.333660E+02           0.798660E-01
0.149860E+02           0.188400E+00
0.696800E+01           0.313620E+00
0.328180E+01           0.353260E+00
0.152470E+01           0.213660E+00
P   9   1.00
0.654780E+03           0.595920E-05
0.212580E+03          -0.680860E-05
0.798950E+02           0.745130E-04
0.333660E+02          -0.606640E-03
0.149860E+02          -0.126040E-02
0.696800E+01          -0.947190E-02
0.328180E+01          -0.440140E-02
0.152470E+01           0.124660E-01
0.669240E+00           0.213430E+00
P   1   1.00
0.299290E+00           1.0000000
P   1   1.00
0.128110E+00           1.0000000
P   1   1.00
0.509920E-01           1.0000000
P   1   1.00
0.188000E-01           1.0000000
D   1   1.00
0.771000E+01           1.0000000
D   1   1.00
0.203000E+01           1.0000000
D   1   1.00
0.600000E+00           1.0000000
D   1   1.00
0.220000E+00           1.0000000
D   1   1.00
0.563990E-01           1.0000000
F   1   1.00
0.134000E+01           1.0000000
F   1   1.00
0.450000E+00           1.0000000
F   1   1.00
0.751990E-01           1.0000000
G   1   1.00
0.720000E+00           1.0000000
G   1   1.00
0.939990E-01           1.0000000
****
$end
--------------------------------------------------------------
 ----------------------------------------------------------------
             Standard Nuclear Orientation (Angstroms)
    I     Atom           X                Y                Z
 ----------------------------------------------------------------
    1      P       0.0000000000    -0.0000000730    -0.0000000156
    2      F       1.6206577326     0.0000000000     0.0000000070
    3      F      -1.6206577679     0.0000000000     0.0000000066
    4      F       0.0000000128     1.6206577903     0.0000000175
    5      F       0.0000000129    -1.6206577183     0.0000000105
    6      F       0.0000000102     0.0000000000     1.6206577392
    7      F       0.0000000098     0.0000000000    -1.6206577633
 ----------------------------------------------------------------
 Nuclear Repulsion Energy =   528.5731616067 hartrees
 There are       35 alpha and       35 beta electrons
 Requested basis set is non-standard
 There are 161 shells and 623 basis functions

 Total QAlloc Memory Limit  10000 MB
 Mega-Array Size      3911 MB
 MEM_STATIC part      4000 MB

                       Distance Matrix (Angstroms)
             P (  1)   F (  2)   F (  3)   F (  4)   F (  5)   F (  6)
   F (  2)  1.620658
   F (  3)  1.620658  3.241316
   F (  4)  1.620658  2.291956  2.291956
   F (  5)  1.620658  2.291956  2.291956  3.241316
   F (  6)  1.620658  2.291956  2.291956  2.291956  2.291956
   F (  7)  1.620658  2.291956  2.291956  2.291956  2.291956  3.241316

 
 A cutoff of  1.0D-14 yielded  12378 shell pairs
 There are    190358 function pairs (    319381 Cartesian)
 
 -------------------------------------------------------
 OpenMP Integral Computing Module                       
 Release: version 1.0, May 2013, Q-Chem Inc. Pittsburgh 
 -------------------------------------------------------
 Integral Job Info:
 Integral job number is                      11
 Integral operator is                         1
 short-range coefficients              15000000
 long-range coefficients              100000000
 Omega coefficients                         300
 if combine SR and LR in K                    1
 Integral screening is                        0
 Integral computing path is                   2
 max size of driver memory is           3200000
 size of driver memory is               1704330
 size of scratch memory is             29050569
 max col of scratch BK array              50625
 max len of scratch array in speh3         2114
 max len of scratch index in speh4           50
 max int batch size is                      520
 min int batch size is                       52
 fixed nKL is                                17
 max L of basis functions is                  4
 order of int derivative is                   0
 number of shells is                        161
 number of basis is                         805
 number of cartesian basis is               805
 number of contracted shell pairs         12378
 number of primitive shell pairs          35268
 maxK2 (contraction) of shell pair          144
 max number of K2 of shell pair               1
 max number of CS2 of shell pair           1208
 max number of PS2 of shell pair           2178
 mem total for path MDJ                 1105868
 -------------------------------------------------------
 Smallest overlap matrix eigenvalue = 5.64E-06
[...]
     0.000000    0.000000   -0.002396    0.000000    0.000000    0.004221
    -0.007337    0.000000    0.000000   -0.000194    0.000000    0.000000
     0.000000   -0.002397    0.000000    0.000000    0.000238    0.000000
     0.000000    0.000000   -0.002396    0.000000    0.000000    0.000238
    -0.002396    0.000000    0.000000   -0.001222    0.001991    0.000000
     0.000000   -0.007337    0.000000    0.001432   -0.001222    0.000000
     0.000000    0.000000   -0.002397    0.000000    0.000000    0.000522
    -0.002396    0.000000    0.000000   -0.001222   -0.001991    0.000000
     0.000000   -0.007337    0.000000   -0.001432   -0.001222    0.000000
     0.000000    0.000000   -0.002397    0.000000    0.000000    0.000522
    -0.002396    0.000000    0.000000   -0.001222    0.000000    0.001991
     0.000000   -0.002396    0.000000    0.000000    0.000522    0.000000
     0.000000    0.000000   -0.007337    0.001432    0.000000   -0.001222
    -0.002397    0.000000    0.000000   -0.001222    0.000000   -0.001991
     0.000000   -0.002396    0.000000    0.000000    0.000522    0.000000
     0.000000    0.000000   -0.007337   -0.001432    0.000000   -0.001222


    -0.007337    0.000000    0.000000   -0.002396    0.000000    0.000000
     0.000000   -0.002397    0.000000    0.000000   -0.007337    0.000000
     0.000000    0.000000   -0.002396    0.000000    0.000000   -0.002397
    -0.000194    0.000000    0.000000   -0.001222    0.001432    0.000000
     0.000000    0.000238    0.000000    0.001991   -0.001222    0.000000
     0.000000    0.000000    0.000238    0.000000    0.000000    0.000522
     0.014450    0.000000    0.000000   -0.001222   -0.001432    0.000000
     0.000000    0.004221    0.000000   -0.001991   -0.001222    0.000000
     0.000000    0.000000    0.004221    0.000000    0.000000    0.000522
    -0.001222   -0.001991    0.000000    0.004221    0.000000    0.000000
    -0.001432   -0.001222    0.000000    0.000000    0.014450    0.000000
     0.000000    0.000000    0.000522    0.000000    0.000000    0.004221
    -0.001222    0.001991    0.000000    0.000238    0.000000    0.000000
     0.001432   -0.001222    0.000000    0.000000   -0.000194    0.000000
     0.000000    0.000000    0.000522    0.000000    0.000000    0.000238
    -0.001222    0.000000   -0.001991    0.000522    0.000000    0.000000
     0.000000    0.000522    0.000000    0.000000   -0.001222    0.001991
    -0.001432    0.000000   -0.001222    0.000000    0.001432   -0.001222
    -0.001222    0.000000    0.001991    0.000522    0.000000    0.000000
     0.000000    0.000522    0.000000    0.000000   -0.001222   -0.001991
     0.001432    0.000000   -0.001222    0.000000   -0.001432   -0.001222


    -0.002396    0.000000    0.000000   -0.002396    0.000000    0.000000
     0.000000   -0.007337    0.000000    0.000000   -0.002396    0.000000
     0.000000    0.000000   -0.002397    0.000000    0.000000   -0.007337
    -0.001222   -0.001432    0.000000   -0.001222    0.000000    0.001432
    -0.001991   -0.001222    0.000000    0.000000    0.000522    0.000000
     0.000000    0.000000    0.000522    0.001991    0.000000   -0.001222
    -0.001222    0.001432    0.000000   -0.001222    0.000000   -0.001432
     0.001991   -0.001222    0.000000    0.000000    0.000522    0.000000
     0.000000    0.000000    0.000522   -0.001991    0.000000   -0.001222
     0.000238    0.000000    0.000000    0.000522    0.000000    0.000000
     0.000000   -0.000194    0.000000    0.000000   -0.001222    0.001432
     0.000000    0.000000    0.000238    0.000000    0.001991   -0.001222
     0.004221    0.000000    0.000000    0.000522    0.000000    0.000000
     0.000000    0.014450    0.000000    0.000000   -0.001222   -0.001432
     0.000000    0.000000    0.004221    0.000000   -0.001991   -0.001222
     0.000522    0.000000    0.000000    0.004221    0.000000    0.000000
     0.000000   -0.001222   -0.001991    0.000000    0.004221    0.000000
     0.000000   -0.001432   -0.001222    0.000000    0.000000    0.014450
     0.000522    0.000000    0.000000    0.000238    0.000000    0.000000
     0.000000   -0.001222    0.001991    0.000000    0.000238    0.000000
     0.000000    0.001432   -0.001222    0.000000    0.000000   -0.000194


    -0.002397    0.000000    0.000000
     0.000000   -0.002396    0.000000
     0.000000    0.000000   -0.007337
    -0.001222    0.000000   -0.001432
     0.000000    0.000522    0.000000
    -0.001991    0.000000   -0.001222
    -0.001222    0.000000    0.001432
     0.000000    0.000522    0.000000
     0.001991    0.000000   -0.001222
     0.000522    0.000000    0.000000
     0.000000   -0.001222   -0.001432
     0.000000   -0.001991   -0.001222
     0.000522    0.000000    0.000000
     0.000000   -0.001222    0.001432
     0.000000    0.001991   -0.001222
     0.000238    0.000000    0.000000
     0.000000    0.000238    0.000000
     0.000000    0.000000   -0.000194
     0.004221    0.000000    0.000000
     0.000000    0.004221    0.000000
     0.000000    0.000000    0.014450

 Eigenvectors of Proj. Mass-Weighted Hessian Matrix:


     0.308217    0.238657    0.051130    0.237950    0.049752   -0.000002
    -0.111991   -0.041481   -0.000532    0.095578    0.436196   -0.000006
    -0.000008    0.000015    0.000001   -0.000002    0.000006    0.462239
     0.241389    0.186912    0.040044    0.186358    0.038965   -0.000001
     0.073662    0.045013   -0.400037   -0.146262    0.438385   -0.000006
     0.086212   -0.336661   -0.206027    0.285460   -0.072677    0.362031
     0.241389    0.186912    0.040044    0.186358    0.038965   -0.000001
    -0.249081   -0.109988    0.399204    0.295972    0.244855   -0.000004
    -0.086225    0.336683    0.206028   -0.285463    0.072687    0.362002
     0.080018    0.109411    0.439665    0.407475   -0.057800    0.000000
    -0.087709   -0.032487   -0.000417    0.074855    0.341620   -0.000005
    -0.301168    0.248987   -0.211652    0.206592   -0.099166    0.362006
     0.402760    0.264413   -0.359576   -0.034759    0.135730   -0.000002
    -0.087709   -0.032487   -0.000417    0.074855    0.341620   -0.000005
     0.301155   -0.248964    0.211653   -0.206595    0.099176    0.362027
     0.155171    0.523584    0.246072   -0.099104    0.111647   -0.000016
     0.213452   -0.281463    0.211236   -0.131739    0.440791    0.000006
    -0.000006    0.000011    0.000001   -0.000001    0.000005    0.362016
     0.327607   -0.149760   -0.165983    0.471820   -0.033717    0.000013
    -0.388871    0.216488   -0.212069    0.281449    0.242448   -0.000016
    -0.000006    0.000011    0.000001   -0.000001    0.000005    0.362016


    -0.000012    0.000013    0.000001   -0.000027    0.000018    0.000005
    -0.000005   -0.000023    0.000005   -0.000003   -0.000007   -0.000004
     0.000012    0.000009   -0.000011    0.000010   -0.000009    0.000000
    -0.000016    0.000017    0.000006   -0.000049   -0.000031    0.000022
     0.140356   -0.453866   -0.155874   -0.244031   -0.255924    0.353483
    -0.215134   -0.204672    0.402290    0.361816   -0.345081   -0.000053
     0.000004    0.000008   -0.000005   -0.000015    0.000064    0.000000
     0.140350   -0.453872   -0.155863    0.244036    0.255942   -0.353471
    -0.215131   -0.204664    0.402292   -0.361836    0.345085    0.000063
     0.428990    0.045848    0.252726   -0.244017   -0.255959    0.353455
    -0.000015   -0.000016    0.000005   -0.000017    0.000003   -0.000070
     0.215103    0.204664   -0.402286   -0.243988   -0.255759   -0.353634
     0.428983    0.045843    0.252738    0.244050    0.255907   -0.353499
    -0.000007   -0.000007   -0.000003    0.000003   -0.000021    0.000050
     0.215138    0.204668   -0.402265    0.243986    0.255773    0.353625
    -0.428974   -0.045870   -0.252734    0.361859   -0.345085   -0.000050
    -0.140357    0.453893    0.155853   -0.243980   -0.255761   -0.353624
     0.000003   -0.000002   -0.000012    0.000006    0.000014    0.000049
    -0.428971   -0.045863   -0.252732   -0.361792    0.345081    0.000065
    -0.140321    0.453897    0.155874    0.243994    0.255770    0.353636
     0.000007   -0.000005   -0.000004    0.000004   -0.000022   -0.000049


     0.312023   -0.196426   -0.150513   -0.000027    0.000111    0.000048
     0.239093    0.176897    0.264838    0.000036   -0.000042   -0.000005
     0.063757    0.297859   -0.256538   -0.000056    0.000345   -0.000006
     0.337575   -0.212895   -0.162500   -0.000334    0.577451    0.408293
    -0.205754   -0.152213   -0.227888   -0.000005    0.000014   -0.000002
    -0.054848   -0.256333    0.220702    0.000049   -0.000321   -0.000008
     0.337954   -0.212376   -0.163390    0.000263   -0.577192   -0.408285
    -0.205728   -0.152227   -0.227896   -0.000074    0.000071    0.000015
    -0.054906   -0.256275    0.220722    0.000046   -0.000282   -0.000013
    -0.268486    0.169026    0.129527    0.000059   -0.000128   -0.000022
     0.258932    0.191619    0.286380    0.500203   -0.288492    0.408224
    -0.054875   -0.256316    0.220739    0.000015   -0.000311   -0.000010
    -0.268461    0.169012    0.129519   -0.000009   -0.000070   -0.000004
     0.258766    0.191318    0.286983   -0.500096    0.288398   -0.408232
    -0.054857   -0.256303    0.220759    0.000100   -0.000280    0.000007
    -0.268465    0.168991    0.129503    0.000029   -0.000121   -0.000019
    -0.205759   -0.152190   -0.227879   -0.000080    0.000017   -0.000008
     0.069104    0.322577   -0.277780   -0.499920   -0.288585    0.408245
    -0.268523    0.169049    0.129523    0.000026   -0.000082   -0.000024
    -0.205741   -0.152177   -0.227858    0.000006    0.000047    0.000009
     0.068973    0.322329   -0.277583    0.499782    0.289339   -0.408211


    -0.467132   -0.525480    0.365236
     0.563340   -0.123149    0.543342
    -0.303588    0.580036    0.446241
     0.252299    0.283805   -0.197240
    -0.027709    0.006048   -0.026724
     0.014929   -0.028521   -0.021946
     0.252293    0.283777   -0.197239
    -0.027705    0.006051   -0.026725
     0.014928   -0.028517   -0.021942
     0.022962    0.025839   -0.017969
    -0.304231    0.066541   -0.293437
     0.014937   -0.028529   -0.021943
     0.022966    0.025842   -0.017970
    -0.304261    0.066511   -0.293432
     0.014933   -0.028528   -0.021946
     0.022969    0.025844   -0.017968
    -0.027694    0.006045   -0.026721
     0.163955   -0.313243   -0.241007
     0.022967    0.025849   -0.017964
    -0.027698    0.006046   -0.026725
     0.163952   -0.313279   -0.240997

 Vibrational Frequencies in atomic units
     0.0000000000    0.0000000000    0.0000000000    0.0000000000    0.0000000000    0.0000000000
     0.0034144614    0.0034146101    0.0034146389    0.0079648976    0.0079651632    0.0079652242
     0.0113633414    0.0113633811    0.0113638796    0.0117793312    0.0117796873    0.0203718887
     0.0273952710    0.0273955866    0.0273963226
 **********************************************************************
 **                                                                  **
 **                       VIBRATIONAL ANALYSIS                       **
 **                       --------------------                       **
 **                                                                  **
 **        VIBRATIONAL FREQUENCIES (CM**-1) AND NORMAL MODES         **
 **     FORCE CONSTANTS (mDYN/ANGSTROM) AND REDUCED MASSES (AMU)     **
 **                  INFRARED INTENSITIES (KM/MOL)                   **
 **                                                                  **
 **********************************************************************
 

 Mode:                 1                      2                      3
 Frequency:       300.38                 300.38                 300.38
 Force Cnst:      1.0100                 1.0100                 1.0100
 Red. Mass:      18.9984                18.9984                18.9984
 IR Active:          YES                    YES                    YES
 IR Intens:        0.000                  0.000                  0.000
 Raman Active:       YES                    YES                    YES
               X      Y      Z        X      Y      Z        X      Y      Z
 P          0.000  0.000  0.000    0.000  0.000  0.000    0.000  0.000  0.000
 F          0.000  0.140 -0.215    0.000 -0.454 -0.205    0.000 -0.156  0.402
 F          0.000  0.140 -0.215    0.000 -0.454 -0.205    0.000 -0.156  0.402
 F          0.429  0.000  0.215    0.046  0.000  0.205    0.253  0.000 -0.402
 F          0.429  0.000  0.215    0.046  0.000  0.205    0.253  0.000 -0.402
 F         -0.429 -0.140  0.000   -0.046  0.454  0.000   -0.253  0.156  0.000
 F         -0.429 -0.140  0.000   -0.046  0.454  0.000   -0.253  0.156  0.000
 TransDip   0.000  0.000  0.000    0.000  0.000  0.000    0.000  0.000  0.000

 Mode:                 4                      5                      6
 Frequency:       458.77                 458.78                 458.78
 Force Cnst:      2.3559                 2.3560                 2.3560
 Red. Mass:      18.9984                18.9984                18.9984
 IR Active:          YES                    YES                    YES
 IR Intens:        0.000                  0.000                  0.000
 Raman Active:       YES                    YES                    YES
               X      Y      Z        X      Y      Z        X      Y      Z
 P          0.000  0.000  0.000    0.000  0.000  0.000    0.000  0.000  0.000
 F          0.000 -0.244  0.362    0.000 -0.256 -0.345    0.000  0.353  0.000
 F          0.000  0.244 -0.362    0.000  0.256  0.345    0.000 -0.353  0.000
 F         -0.244  0.000 -0.244   -0.256  0.000 -0.256    0.353  0.000 -0.354
 F          0.244  0.000  0.244    0.256  0.000  0.256   -0.353  0.000  0.354
 F          0.362 -0.244  0.000   -0.345 -0.256  0.000    0.000 -0.354  0.000
 F         -0.362  0.244  0.000    0.345  0.256  0.000    0.000  0.354  0.000
 TransDip   0.000  0.000  0.000    0.000  0.000  0.000    0.000  0.000  0.000

 Mode:                 7                      8                      9
 Frequency:       547.97                 547.97                 547.99
 Force Cnst:      3.5807                 3.5807                 3.5809
 Red. Mass:      20.2394                20.2394                20.2395
 IR Active:          YES                    YES                    YES
 IR Intens:       27.413                 27.413                 27.420
 Raman Active:       YES                    YES                    YES
               X      Y      Z        X      Y      Z        X      Y      Z
 P          0.252  0.193  0.052   -0.159  0.143  0.241   -0.122  0.214 -0.207
 F          0.348 -0.212 -0.057   -0.220 -0.157 -0.265   -0.168 -0.235  0.228
 F          0.349 -0.212 -0.057   -0.219 -0.157 -0.265   -0.169 -0.235  0.228
 F         -0.277  0.267 -0.057    0.174  0.198 -0.265    0.134  0.296  0.228
 F         -0.277  0.267 -0.057    0.174  0.197 -0.265    0.134  0.296  0.228
 F         -0.277 -0.212  0.071    0.174 -0.157  0.333    0.134 -0.235 -0.287
 F         -0.277 -0.212  0.071    0.174 -0.157  0.333    0.134 -0.235 -0.287
 TransDip   0.131  0.101  0.027   -0.083  0.074  0.125   -0.063  0.112 -0.108

 Mode:                10                     11                     12
 Frequency:       557.91                 557.92                 733.70
 Force Cnst:      3.4842                 3.4843                 6.0257
 Red. Mass:      18.9984                18.9984                18.9984
 IR Active:          YES                    YES                    YES
 IR Intens:        0.000                  0.000                  0.000
 Raman Active:       YES                    YES                    YES
               X      Y      Z        X      Y      Z        X      Y      Z
 P          0.000  0.000  0.000    0.000  0.000  0.000    0.000  0.000  0.000
 F          0.000  0.000  0.000    0.577  0.000  0.000    0.408  0.000  0.000
 F          0.000  0.000  0.000   -0.577  0.000  0.000   -0.408  0.000  0.000
 F          0.000  0.500  0.000    0.000 -0.288  0.000    0.000  0.408  0.000
 F          0.000 -0.500  0.000    0.000  0.288  0.000    0.000 -0.408  0.000
 F          0.000  0.000 -0.500    0.000  0.000 -0.289    0.000  0.000  0.408
 F          0.000  0.000  0.500    0.000  0.000  0.289    0.000  0.000 -0.408
 TransDip   0.000  0.000  0.000    0.000  0.000  0.000    0.000  0.000  0.000

 Mode:                13                     14                     15
 Frequency:       850.83                 850.84                 850.85
 Force Cnst:     10.7000                10.7002                10.7005
 Red. Mass:      25.0870                25.0871                25.0872
 IR Active:          YES                    YES                    YES
 IR Intens:      451.409                451.428                451.442
 Raman Active:       YES                    YES                    YES
               X      Y      Z        X      Y      Z        X      Y      Z
 P         -0.420  0.507 -0.273   -0.473 -0.111  0.522    0.329  0.489  0.402
 F          0.290 -0.032  0.017    0.326  0.007 -0.033   -0.227 -0.031 -0.025
 F          0.290 -0.032  0.017    0.326  0.007 -0.033   -0.227 -0.031 -0.025
 F          0.026 -0.350  0.017    0.030  0.076 -0.033   -0.021 -0.337 -0.025
 F          0.026 -0.350  0.017    0.030  0.076 -0.033   -0.021 -0.337 -0.025
 F          0.026 -0.032  0.188    0.030  0.007 -0.360   -0.021 -0.031 -0.277
 F          0.026 -0.032  0.188    0.030  0.007 -0.360   -0.021 -0.031 -0.277
 TransDip  -0.401  0.484 -0.261   -0.451 -0.106  0.498    0.314  0.467  0.383

 STANDARD THERMODYNAMIC QUANTITIES AT   298.15 K  AND     1.00 ATM

   This Molecule has  0 Imaginary Frequencies
   Zero point vibrational energy:       11.899 kcal/mol

   Atom    1 Element P  Has Mass   30.97376
   Atom    2 Element F  Has Mass   18.99840
   Atom    3 Element F  Has Mass   18.99840
   Atom    4 Element F  Has Mass   18.99840
   Atom    5 Element F  Has Mass   18.99840
   Atom    6 Element F  Has Mass   18.99840
   Atom    7 Element F  Has Mass   18.99840
   Molecular Mass:   144.964160 amu
   Principal axes and moments of inertia in amu*Bohr^2:
                             1           2           3
    Eigenvalues --      712.78307   712.78307   712.78307
          X               0.01312     0.50299     0.86419
          Y               0.91058    -0.36310     0.19751
          Z               0.41313     0.78432    -0.46278
   Rotational Symmetry Number is   1
   The Molecule is a Spherical Top
   Translational Enthalpy:        0.889 kcal/mol
   Rotational Enthalpy:           0.889 kcal/mol
   Vibrational Enthalpy:         13.948 kcal/mol
   gas constant (RT):             0.592 kcal/mol
   Translational Entropy:        40.825  cal/mol.K
   Rotational Entropy:           27.384  cal/mol.K
   Vibrational Entropy:          10.032  cal/mol.K

   Total Enthalpy:               16.318 kcal/mol
   Total Entropy:                78.241  cal/mol.K
Archival summary:
1\1\comet-08-07.sdsc.edu\FREQ\ProcedureUnspecified\BasisUnspecified\16(1-,1)\ohamto\SunJul920:26:222017SunJul920:26:222017\0\\#,FREQ,ProcedureUnspecified,BasisUnspecified,\\-1,1\P\F,1,1.62066\F,1,1.62066,2,90\F,1,1.62066,2,90,3,-90,0\F,1,1.62066,2,90,3,90,0\F,1,1.62066,2,90,3,180,0\F,1,1.62066,2,180,3,61.5681,0\\\@

 Total job time:  113172.39s(wall), 860218.48s(cpu) 
 Sun Jul  9 20:26:22 2017

        *************************************************************
        *                                                           *
        *  Thank you very much for using Q-Chem.  Have a nice day.  *
        *                                                           *
        *************************************************************


0 sent ACK to 0 
now end server 0 ... 
cleanup process ... done
